
     Program MATDYN v.7.1 starts on 26Oct2023 at 21: 5:25 

     This program is part of the open-source Quantum ESPRESSO suite
     for quantum simulation of materials; please cite
         "P. Giannozzi et al., J. Phys.:Condens. Matter 21 395502 (2009);
         "P. Giannozzi et al., J. Phys.:Condens. Matter 29 465901 (2017);
         "P. Giannozzi et al., J. Chem. Phys. 152 154105 (2020);
          URL http://www.quantum-espresso.org", 
     in publications or presentations arising from this work. More details at
     http://www.quantum-espresso.org/quote

     Parallel version (MPI), running on     1 processors

     MPI processes distributed on     1 nodes
     19362 MiB available memory on the printing compute node when the environment starts
 
     Message from routine matdyn:
     Z* not found in file Ca1H6.fc, TO-LO splitting at q=0 will be absent!
 
     MATDYN       :     35.16s CPU     36.69s WALL

 
   This run was terminated on:  21: 6: 2  26Oct2023            

=------------------------------------------------------------------------------=
   JOB DONE.
=------------------------------------------------------------------------------=
