
     Program Q2R v.6.8 starts on  3Aug2022 at  9: 0:35 

     This program is part of the open-source Quantum ESPRESSO suite
     for quantum simulation of materials; please cite
         "P. Giannozzi et al., J. Phys.:Condens. Matter 21 395502 (2009);
         "P. Giannozzi et al., J. Phys.:Condens. Matter 29 465901 (2017);
         "P. Giannozzi et al., J. Chem. Phys. 152 154105 (2020);
          URL http://www.quantum-espresso.org", 
     in publications or presentations arising from this work. More details at
     http://www.quantum-espresso.org/quote

     Parallel version (MPI), running on    48 processors

     MPI processes distributed on     1 nodes
     K-points division:     npool     =       4
     R & G space division:  proc/nbgrp/npool/nimage =      12
     189314 MiB available memory on the printing compute node when the environment starts
 

     reading grid info from file Ca1H6.dyn0    
  reading force constants from file Ca1H6.dyn1
  Dielectric Tensor not found
  nqs=            1
 q=   0.00000000  0.00000000  0.00000000
  reading force constants from file Ca1H6.dyn2
  nqs=           12
 q=   0.10825320  0.10825320  0.00000000
 q=  -0.10825320 -0.10825320  0.00000000
 q=   0.10825320 -0.10825320  0.00000000
 q=  -0.10825320  0.10825320  0.00000000
 q=   0.00000000 -0.10825320  0.10825320
 q=   0.00000000 -0.10825320 -0.10825320
 q=   0.00000000  0.10825320 -0.10825320
 q=   0.00000000  0.10825320  0.10825320
 q=  -0.10825320  0.00000000  0.10825320
 q=  -0.10825320  0.00000000 -0.10825320
 q=   0.10825320  0.00000000 -0.10825320
 q=   0.10825320  0.00000000  0.10825320
  reading force constants from file Ca1H6.dyn3
  nqs=           12
 q=   0.21650635  0.21650635  0.00000000
 q=   0.21650635 -0.21650635  0.00000000
 q=  -0.21650635 -0.21650635  0.00000000
 q=  -0.21650635  0.21650635  0.00000000
 q=   0.21650635  0.00000000 -0.21650635
 q=  -0.21650635  0.00000000  0.21650635
 q=   0.21650635  0.00000000  0.21650635
 q=   0.00000000 -0.21650635 -0.21650635
 q=   0.00000000  0.21650635 -0.21650635
 q=   0.00000000  0.21650635  0.21650635
 q=   0.00000000 -0.21650635  0.21650635
 q=  -0.21650635  0.00000000 -0.21650635
  reading force constants from file Ca1H6.dyn4
  nqs=           12
 q=   0.32475950  0.32475950  0.00000000
 q=  -0.32475950 -0.32475950  0.00000000
 q=   0.32475950 -0.32475950  0.00000000
 q=  -0.32475950  0.32475950  0.00000000
 q=   0.00000000 -0.32475950  0.32475950
 q=   0.00000000 -0.32475950 -0.32475950
 q=   0.00000000  0.32475950 -0.32475950
 q=   0.00000000  0.32475950  0.32475950
 q=  -0.32475950  0.00000000  0.32475950
 q=  -0.32475950  0.00000000 -0.32475950
 q=   0.32475950  0.00000000 -0.32475950
 q=   0.32475950  0.00000000  0.32475950
  reading force constants from file Ca1H6.dyn5
  nqs=            6
 q=  -0.43301270 -0.43301270  0.00000000
 q=   0.00000000  0.43301270 -0.43301270
 q=   0.00000000  0.43301270  0.43301270
 q=   0.43301270  0.00000000 -0.43301270
 q=   0.43301270  0.00000000  0.43301270
 q=   0.43301270 -0.43301270  0.00000000
  reading force constants from file Ca1H6.dyn6
  nqs=           24
 q=   0.21650640  0.10825320  0.10825320
 q=  -0.21650640  0.10825320 -0.10825320
 q=   0.21650640 -0.10825320 -0.10825320
 q=   0.10825320  0.21650640 -0.10825320
 q=  -0.10825320 -0.21650640 -0.10825320
 q=   0.10825320 -0.21650640  0.10825320
 q=  -0.10825320  0.21650640  0.10825320
 q=   0.10825320 -0.10825320  0.21650640
 q=  -0.10825320 -0.10825320 -0.21650640
 q=   0.10825320  0.10825320 -0.21650640
 q=  -0.10825320  0.10825320  0.21650640
 q=  -0.21650640  0.10825320  0.10825320
 q=  -0.21650640 -0.10825320 -0.10825320
 q=   0.21650640  0.10825320 -0.10825320
 q=   0.21650640 -0.10825320  0.10825320
 q=   0.10825320  0.10825320  0.21650640
 q=  -0.10825320  0.10825320 -0.21650640
 q=   0.10825320 -0.10825320 -0.21650640
 q=  -0.10825320 -0.10825320  0.21650640
 q=   0.10825320  0.21650640  0.10825320
 q=   0.10825320 -0.21650640 -0.10825320
 q=  -0.10825320 -0.21650640  0.10825320
 q=  -0.10825320  0.21650640 -0.10825320
 q=  -0.21650640 -0.10825320  0.10825320
  reading force constants from file Ca1H6.dyn7
  nqs=           48
 q=   0.32475953  0.21650635  0.10825317
 q=  -0.32475953  0.21650635  0.10825317
 q=  -0.32475953  0.10825317  0.21650635
 q=   0.32475953  0.10825317  0.21650635
 q=   0.21650635 -0.32475953  0.10825317
 q=  -0.21650635 -0.32475953  0.10825317
 q=  -0.32475953 -0.21650635  0.10825317
 q=   0.21650635  0.32475953  0.10825317
 q=   0.21650635 -0.10825317 -0.32475953
 q=  -0.21650635 -0.10825317  0.32475953
 q=   0.21650635  0.10825317  0.32475953
 q=   0.10825317 -0.32475953 -0.21650635
 q=  -0.10825317  0.32475953 -0.21650635
 q=   0.10825317  0.32475953  0.21650635
 q=  -0.32475953  0.21650635 -0.10825317
 q=   0.10825317  0.21650635  0.32475953
 q=   0.32475953 -0.21650635 -0.10825317
 q=  -0.21650635  0.32475953 -0.10825317
 q=   0.21650635 -0.32475953 -0.10825317
 q=  -0.10825317 -0.21650635  0.32475953
 q=   0.10825317 -0.21650635 -0.32475953
 q=   0.32475953 -0.10825317 -0.21650635
 q=  -0.32475953 -0.10825317  0.21650635
 q=  -0.32475953  0.10825317 -0.21650635
 q=  -0.32475953 -0.10825317 -0.21650635
 q=   0.32475953  0.10825317 -0.21650635
 q=   0.32475953 -0.10825317  0.21650635
 q=  -0.32475953 -0.21650635 -0.10825317
 q=   0.32475953  0.21650635 -0.10825317
 q=  -0.10825317 -0.32475953  0.21650635
 q=  -0.21650635  0.32475953  0.10825317
 q=   0.10825317 -0.21650635  0.32475953
 q=  -0.10825317  0.21650635 -0.32475953
 q=  -0.21650635 -0.32475953 -0.10825317
 q=  -0.10825317 -0.21650635 -0.32475953
 q=   0.10825317  0.21650635 -0.32475953
 q=  -0.10825317  0.21650635  0.32475953
 q=   0.21650635  0.32475953 -0.10825317
 q=   0.32475953 -0.21650635  0.10825317
 q=  -0.21650635  0.10825317 -0.32475953
 q=  -0.21650635 -0.10825317 -0.32475953
 q=   0.21650635 -0.10825317  0.32475953
 q=  -0.21650635  0.10825317  0.32475953
 q=   0.21650635  0.10825317 -0.32475953
 q=  -0.10825317 -0.32475953 -0.21650635
 q=  -0.10825317  0.32475953  0.21650635
 q=   0.10825317  0.32475953 -0.21650635
 q=   0.10825317 -0.32475953  0.21650635
  reading force constants from file Ca1H6.dyn8
  nqs=           48
 q=   0.43301270  0.32475950  0.10825320
 q=  -0.43301270 -0.32475950  0.10825320
 q=  -0.43301270  0.32475950 -0.10825320
 q=   0.43301270 -0.32475950 -0.10825320
 q=   0.32475950  0.43301270 -0.10825320
 q=  -0.32475950 -0.43301270 -0.10825320
 q=   0.32475950 -0.43301270  0.10825320
 q=  -0.32475950  0.43301270  0.10825320
 q=   0.10825320 -0.32475950  0.43301270
 q=  -0.10825320 -0.32475950 -0.43301270
 q=   0.10825320  0.32475950 -0.43301270
 q=  -0.10825320  0.32475950  0.43301270
 q=  -0.43301270  0.10825320  0.32475950
 q=  -0.43301270 -0.10825320 -0.32475950
 q=   0.43301270  0.10825320 -0.32475950
 q=   0.43301270 -0.10825320  0.32475950
 q=   0.32475950  0.10825320  0.43301270
 q=  -0.32475950  0.10825320 -0.43301270
 q=   0.32475950 -0.10825320 -0.43301270
 q=  -0.32475950 -0.10825320  0.43301270
 q=   0.10825320  0.43301270  0.32475950
 q=   0.10825320 -0.43301270 -0.32475950
 q=  -0.10825320 -0.43301270  0.32475950
 q=  -0.10825320  0.43301270 -0.32475950
 q=  -0.43301270 -0.32475950 -0.10825320
 q=   0.43301270  0.32475950 -0.10825320
 q=   0.43301270 -0.32475950  0.10825320
 q=  -0.43301270  0.32475950  0.10825320
 q=  -0.32475950 -0.43301270  0.10825320
 q=   0.32475950  0.43301270  0.10825320
 q=  -0.32475950  0.43301270 -0.10825320
 q=   0.32475950 -0.43301270 -0.10825320
 q=  -0.10825320  0.32475950 -0.43301270
 q=   0.10825320  0.32475950  0.43301270
 q=  -0.10825320 -0.32475950  0.43301270
 q=   0.10825320 -0.32475950 -0.43301270
 q=   0.43301270 -0.10825320 -0.32475950
 q=   0.43301270  0.10825320  0.32475950
 q=  -0.43301270 -0.10825320  0.32475950
 q=  -0.43301270  0.10825320 -0.32475950
 q=  -0.32475950 -0.10825320 -0.43301270
 q=   0.32475950 -0.10825320  0.43301270
 q=  -0.32475950  0.10825320  0.43301270
 q=   0.32475950  0.10825320 -0.43301270
 q=  -0.10825320 -0.43301270 -0.32475950
 q=  -0.10825320  0.43301270  0.32475950
 q=   0.10825320  0.43301270 -0.32475950
 q=   0.10825320 -0.43301270  0.32475950
  reading force constants from file Ca1H6.dyn9
  nqs=           24
 q=   0.43301270  0.21650635  0.21650635
 q=  -0.43301270  0.21650635  0.21650635
 q=   0.21650635 -0.43301270  0.21650635
 q=  -0.21650635 -0.43301270  0.21650635
 q=  -0.43301270 -0.21650635  0.21650635
 q=   0.21650635  0.43301270  0.21650635
 q=   0.21650635 -0.21650635 -0.43301270
 q=  -0.21650635 -0.21650635  0.43301270
 q=   0.21650635  0.21650635  0.43301270
 q=   0.21650635 -0.43301270 -0.21650635
 q=  -0.21650635  0.43301270 -0.21650635
 q=  -0.43301270  0.21650635 -0.21650635
 q=   0.43301270 -0.21650635 -0.21650635
 q=  -0.43301270 -0.21650635 -0.21650635
 q=   0.43301270  0.21650635 -0.21650635
 q=   0.43301270 -0.21650635  0.21650635
 q=  -0.21650635  0.43301270  0.21650635
 q=   0.21650635 -0.21650635  0.43301270
 q=  -0.21650635  0.21650635 -0.43301270
 q=  -0.21650635 -0.43301270 -0.21650635
 q=  -0.21650635 -0.21650635 -0.43301270
 q=   0.21650635  0.21650635 -0.43301270
 q=  -0.21650635  0.21650635  0.43301270
 q=   0.21650635  0.43301270 -0.21650635
  reading force constants from file Ca1H6.dyn10
  nqs=           24
 q=   0.54126588  0.32475953  0.21650635
 q=  -0.54126588  0.21650635  0.32475953
 q=   0.54126588  0.21650635  0.32475953
 q=   0.32475953 -0.54126588  0.21650635
 q=  -0.54126588 -0.32475953  0.21650635
 q=   0.32475953 -0.21650635 -0.54126588
 q=  -0.32475953 -0.21650635  0.54126588
 q=   0.32475953  0.21650635  0.54126588
 q=   0.21650635 -0.54126588 -0.32475953
 q=  -0.21650635  0.54126588 -0.32475953
 q=   0.21650635  0.54126588  0.32475953
 q=  -0.54126588  0.32475953 -0.21650635
 q=   0.54126588 -0.32475953 -0.21650635
 q=  -0.54126588 -0.21650635 -0.32475953
 q=   0.54126588  0.21650635 -0.32475953
 q=   0.54126588 -0.21650635  0.32475953
 q=  -0.54126588 -0.32475953 -0.21650635
 q=   0.54126588  0.32475953 -0.21650635
 q=  -0.21650635 -0.54126588  0.32475953
 q=  -0.32475953  0.54126588  0.21650635
 q=   0.21650635 -0.32475953  0.54126588
 q=  -0.21650635 -0.32475953 -0.54126588
 q=   0.21650635  0.32475953 -0.54126588
 q=  -0.21650635  0.32475953  0.54126588
  reading force constants from file Ca1H6.dyn11
  nqs=            8
 q=   0.21650640  0.21650640  0.21650640
 q=   0.21650640 -0.21650640  0.21650640
 q=  -0.21650640  0.21650640  0.21650640
 q=  -0.21650640 -0.21650640 -0.21650640
 q=   0.21650640  0.21650640 -0.21650640
 q=  -0.21650640 -0.21650640  0.21650640
 q=  -0.21650640  0.21650640 -0.21650640
 q=   0.21650640 -0.21650640 -0.21650640
  reading force constants from file Ca1H6.dyn12
  nqs=           24
 q=   0.32475953  0.32475953  0.21650635
 q=  -0.32475953  0.21650635  0.32475953
 q=   0.32475953  0.21650635  0.32475953
 q=   0.32475953 -0.32475953  0.21650635
 q=  -0.32475953 -0.32475953  0.21650635
 q=  -0.32475953  0.32475953  0.21650635
 q=   0.32475953 -0.21650635 -0.32475953
 q=  -0.32475953 -0.21650635  0.32475953
 q=   0.21650635 -0.32475953 -0.32475953
 q=  -0.21650635  0.32475953 -0.32475953
 q=   0.21650635  0.32475953  0.32475953
 q=  -0.32475953  0.32475953 -0.21650635
 q=   0.32475953 -0.32475953 -0.21650635
 q=  -0.21650635 -0.32475953  0.32475953
 q=  -0.32475953  0.21650635 -0.32475953
 q=  -0.32475953 -0.21650635 -0.32475953
 q=   0.32475953  0.21650635 -0.32475953
 q=   0.32475953 -0.21650635  0.32475953
 q=  -0.32475953 -0.32475953 -0.21650635
 q=   0.32475953  0.32475953 -0.21650635
 q=   0.21650635 -0.32475953  0.32475953
 q=  -0.21650635 -0.32475953 -0.32475953
 q=   0.21650635  0.32475953 -0.32475953
 q=  -0.21650635  0.32475953  0.32475953
  reading force constants from file Ca1H6.dyn13
  nqs=           12
 q=   0.43301270  0.43301270  0.21650640
 q=   0.43301270  0.43301270 -0.21650640
 q=   0.43301270 -0.43301270  0.21650640
 q=   0.21650640 -0.43301270  0.43301270
 q=  -0.21650640 -0.43301270 -0.43301270
 q=  -0.43301270  0.21650640  0.43301270
 q=  -0.43301270 -0.21650640 -0.43301270
 q=   0.43301270  0.21650640  0.43301270
 q=   0.43301270 -0.21650640 -0.43301270
 q=   0.21650640  0.43301270  0.43301270
 q=  -0.21650640 -0.43301270  0.43301270
 q=  -0.43301270  0.43301270 -0.21650640
  reading force constants from file Ca1H6.dyn14
  nqs=            6
 q=   0.00000000  0.00000000  0.21650640
 q=   0.21650640  0.00000000  0.00000000
 q=  -0.21650640  0.00000000  0.00000000
 q=   0.00000000  0.21650640  0.00000000
 q=   0.00000000 -0.21650640  0.00000000
 q=   0.00000000  0.00000000 -0.21650640
  reading force constants from file Ca1H6.dyn15
  nqs=           24
 q=   0.43301270  0.32475950  0.32475950
 q=  -0.43301270  0.32475950 -0.32475950
 q=   0.43301270 -0.32475950 -0.32475950
 q=   0.32475950  0.43301270 -0.32475950
 q=  -0.32475950 -0.43301270 -0.32475950
 q=   0.32475950 -0.43301270  0.32475950
 q=  -0.32475950  0.43301270  0.32475950
 q=   0.32475950 -0.32475950  0.43301270
 q=  -0.32475950 -0.32475950 -0.43301270
 q=   0.32475950  0.32475950 -0.43301270
 q=  -0.32475950  0.32475950  0.43301270
 q=  -0.43301270  0.32475950  0.32475950
 q=  -0.43301270 -0.32475950 -0.32475950
 q=   0.43301270  0.32475950 -0.32475950
 q=   0.43301270 -0.32475950  0.32475950
 q=   0.32475950  0.32475950  0.43301270
 q=  -0.32475950  0.32475950 -0.43301270
 q=   0.32475950 -0.32475950 -0.43301270
 q=  -0.32475950 -0.32475950  0.43301270
 q=   0.32475950  0.43301270  0.32475950
 q=   0.32475950 -0.43301270 -0.32475950
 q=  -0.32475950 -0.43301270  0.32475950
 q=  -0.32475950  0.43301270 -0.32475950
 q=  -0.43301270 -0.32475950  0.32475950
  reading force constants from file Ca1H6.dyn16
  nqs=           24
 q=   0.00000000 -0.10825320  0.32475950
 q=   0.00000000 -0.10825320 -0.32475950
 q=   0.00000000  0.10825320 -0.32475950
 q=  -0.10825320  0.00000000 -0.32475950
 q=   0.10825320  0.00000000 -0.32475950
 q=  -0.10825320  0.00000000  0.32475950
 q=   0.10825320  0.00000000  0.32475950
 q=   0.32475950  0.10825320  0.00000000
 q=  -0.32475950  0.10825320  0.00000000
 q=   0.32475950 -0.10825320  0.00000000
 q=  -0.32475950 -0.10825320  0.00000000
 q=   0.00000000  0.32475950 -0.10825320
 q=   0.00000000 -0.32475950  0.10825320
 q=   0.00000000  0.32475950  0.10825320
 q=   0.00000000 -0.32475950 -0.10825320
 q=  -0.10825320  0.32475950  0.00000000
 q=   0.10825320  0.32475950  0.00000000
 q=  -0.10825320 -0.32475950  0.00000000
 q=   0.10825320 -0.32475950  0.00000000
 q=   0.32475950  0.00000000 -0.10825320
 q=   0.32475950  0.00000000  0.10825320
 q=  -0.32475950  0.00000000 -0.10825320
 q=  -0.32475950  0.00000000  0.10825320
 q=   0.00000000  0.10825320  0.32475950
  reading force constants from file Ca1H6.dyn17
  nqs=           24
 q=   0.00000000 -0.21650640  0.43301270
 q=   0.00000000 -0.21650640 -0.43301270
 q=   0.00000000  0.21650640 -0.43301270
 q=  -0.21650640  0.00000000 -0.43301270
 q=   0.21650640  0.00000000 -0.43301270
 q=  -0.21650640  0.00000000  0.43301270
 q=   0.21650640  0.00000000  0.43301270
 q=   0.43301270  0.21650640  0.00000000
 q=  -0.43301270  0.21650640  0.00000000
 q=   0.43301270 -0.21650640  0.00000000
 q=  -0.43301270 -0.21650640  0.00000000
 q=   0.00000000  0.43301270 -0.21650640
 q=   0.00000000 -0.43301270  0.21650640
 q=   0.00000000  0.43301270  0.21650640
 q=   0.00000000 -0.43301270 -0.21650640
 q=  -0.21650640  0.43301270  0.00000000
 q=   0.21650640  0.43301270  0.00000000
 q=  -0.21650640 -0.43301270  0.00000000
 q=   0.21650640 -0.43301270  0.00000000
 q=   0.43301270  0.00000000 -0.21650640
 q=   0.43301270  0.00000000  0.21650640
 q=  -0.43301270  0.00000000 -0.21650640
 q=  -0.43301270  0.00000000  0.21650640
 q=   0.00000000  0.21650640  0.43301270
  reading force constants from file Ca1H6.dyn18
  nqs=           24
 q=   0.10825320 -0.10825320  0.43301270
 q=  -0.10825320 -0.10825320 -0.43301270
 q=   0.10825320  0.10825320 -0.43301270
 q=  -0.10825320  0.10825320 -0.43301270
 q=   0.10825320 -0.10825320 -0.43301270
 q=  -0.10825320 -0.10825320  0.43301270
 q=   0.10825320  0.10825320  0.43301270
 q=   0.43301270  0.10825320  0.10825320
 q=  -0.43301270  0.10825320 -0.10825320
 q=   0.43301270 -0.10825320 -0.10825320
 q=  -0.43301270 -0.10825320  0.10825320
 q=  -0.10825320  0.43301270 -0.10825320
 q=  -0.10825320 -0.43301270  0.10825320
 q=   0.10825320  0.43301270  0.10825320
 q=   0.10825320 -0.43301270 -0.10825320
 q=  -0.10825320  0.43301270  0.10825320
 q=   0.10825320  0.43301270 -0.10825320
 q=  -0.10825320 -0.43301270 -0.10825320
 q=   0.10825320 -0.43301270  0.10825320
 q=   0.43301270  0.10825320 -0.10825320
 q=   0.43301270 -0.10825320  0.10825320
 q=  -0.43301270 -0.10825320 -0.10825320
 q=  -0.43301270  0.10825320  0.10825320
 q=  -0.10825320  0.10825320  0.43301270
  reading force constants from file Ca1H6.dyn19
  nqs=           12
 q=  -0.86602540 -0.32475950 -0.32475950
 q=  -0.32475950 -0.86602540  0.32475950
 q=   0.32475950  0.86602540  0.32475950
 q=  -0.32475950  0.86602540 -0.32475950
 q=   0.32475950 -0.86602540 -0.32475950
 q=  -0.32475950  0.32475950 -0.86602540
 q=   0.32475950  0.32475950  0.86602540
 q=  -0.32475950 -0.32475950  0.86602540
 q=   0.32475950 -0.32475950 -0.86602540
 q=   0.86602540  0.32475950 -0.32475950
 q=   0.86602540  0.32475950  0.32475950
 q=  -0.86602540 -0.32475950  0.32475950
  reading force constants from file Ca1H6.dyn20
  nqs=           48
 q=  -0.75777223 -0.21650635 -0.32475953
 q=   0.75777223 -0.21650635 -0.32475953
 q=   0.75777223 -0.32475953 -0.21650635
 q=  -0.75777223 -0.32475953 -0.21650635
 q=  -0.21650635  0.75777223 -0.32475953
 q=   0.21650635  0.75777223 -0.32475953
 q=   0.75777223  0.21650635 -0.32475953
 q=  -0.21650635 -0.75777223 -0.32475953
 q=  -0.21650635  0.32475953  0.75777223
 q=   0.21650635  0.32475953 -0.75777223
 q=  -0.21650635 -0.32475953 -0.75777223
 q=  -0.32475953  0.75777223  0.21650635
 q=   0.32475953 -0.75777223  0.21650635
 q=  -0.32475953 -0.75777223 -0.21650635
 q=   0.75777223 -0.21650635  0.32475953
 q=  -0.32475953 -0.21650635 -0.75777223
 q=  -0.75777223  0.21650635  0.32475953
 q=   0.21650635 -0.75777223  0.32475953
 q=  -0.21650635  0.75777223  0.32475953
 q=   0.32475953  0.21650635 -0.75777223
 q=  -0.32475953  0.21650635  0.75777223
 q=  -0.75777223  0.32475953  0.21650635
 q=   0.75777223  0.32475953 -0.21650635
 q=   0.75777223 -0.32475953  0.21650635
 q=   0.75777223  0.32475953  0.21650635
 q=  -0.75777223 -0.32475953  0.21650635
 q=  -0.75777223  0.32475953 -0.21650635
 q=   0.75777223  0.21650635  0.32475953
 q=  -0.75777223 -0.21650635  0.32475953
 q=   0.32475953  0.75777223 -0.21650635
 q=   0.21650635 -0.75777223 -0.32475953
 q=  -0.32475953  0.21650635 -0.75777223
 q=   0.32475953 -0.21650635  0.75777223
 q=   0.21650635  0.75777223  0.32475953
 q=   0.32475953  0.21650635  0.75777223
 q=  -0.32475953 -0.21650635  0.75777223
 q=   0.32475953 -0.21650635 -0.75777223
 q=  -0.21650635 -0.75777223  0.32475953
 q=  -0.75777223  0.21650635 -0.32475953
 q=   0.21650635 -0.32475953  0.75777223
 q=   0.21650635  0.32475953  0.75777223
 q=  -0.21650635  0.32475953 -0.75777223
 q=   0.21650635 -0.32475953 -0.75777223
 q=  -0.21650635 -0.32475953  0.75777223
 q=   0.32475953  0.75777223  0.21650635
 q=   0.32475953 -0.75777223 -0.21650635
 q=  -0.32475953 -0.75777223  0.21650635
 q=  -0.32475953  0.75777223 -0.21650635
  reading force constants from file Ca1H6.dyn21
  nqs=            8
 q=  -0.64951910 -0.21650640 -0.21650640
 q=  -0.21650640  0.64951910 -0.21650640
 q=   0.21650640 -0.64951910 -0.21650640
 q=  -0.21650640  0.21650640 -0.64951910
 q=   0.21650640 -0.21650640 -0.64951910
 q=  -0.21650640 -0.21650640 -0.64951910
 q=   0.64951910  0.21650640 -0.21650640
 q=   0.21650640  0.21650640 -0.64951910
  reading force constants from file Ca1H6.dyn22
  nqs=            2
 q=   0.43301270  0.43301270  0.43301270
 q=  -0.43301270 -0.43301270 -0.43301270
  reading force constants from file Ca1H6.dyn23
  nqs=            6
 q=   0.00000000  0.00000000  0.43301270
 q=   0.43301270  0.00000000  0.00000000
 q=  -0.43301270  0.00000000  0.00000000
 q=   0.00000000  0.43301270  0.00000000
 q=   0.00000000 -0.43301270  0.00000000
 q=   0.00000000  0.00000000 -0.43301270
  reading force constants from file Ca1H6.dyn24
  nqs=           24
 q=   0.00000000 -0.10825320  0.54126590
 q=   0.00000000 -0.10825320 -0.54126590
 q=   0.00000000  0.10825320 -0.54126590
 q=  -0.10825320  0.00000000 -0.54126590
 q=   0.10825320  0.00000000 -0.54126590
 q=  -0.10825320  0.00000000  0.54126590
 q=   0.10825320  0.00000000  0.54126590
 q=   0.54126590  0.10825320  0.00000000
 q=  -0.54126590  0.10825320  0.00000000
 q=   0.54126590 -0.10825320  0.00000000
 q=  -0.54126590 -0.10825320  0.00000000
 q=   0.00000000  0.54126590 -0.10825320
 q=   0.00000000 -0.54126590  0.10825320
 q=   0.00000000  0.54126590  0.10825320
 q=   0.00000000 -0.54126590 -0.10825320
 q=  -0.10825320  0.54126590  0.00000000
 q=   0.10825320  0.54126590  0.00000000
 q=  -0.10825320 -0.54126590  0.00000000
 q=   0.10825320 -0.54126590  0.00000000
 q=   0.54126590  0.00000000 -0.10825320
 q=   0.54126590  0.00000000  0.10825320
 q=  -0.54126590  0.00000000 -0.10825320
 q=  -0.54126590  0.00000000  0.10825320
 q=   0.00000000  0.10825320  0.54126590
  reading force constants from file Ca1H6.dyn25
  nqs=           12
 q=  -0.86602540 -0.21650635 -0.21650635
 q=  -0.21650635  0.86602540 -0.21650635
 q=   0.21650635  0.86602540 -0.21650635
 q=   0.86602540  0.21650635 -0.21650635
 q=  -0.21650635  0.21650635  0.86602540
 q=   0.21650635  0.21650635 -0.86602540
 q=  -0.21650635 -0.21650635 -0.86602540
 q=  -0.21650635  0.86602540  0.21650635
 q=   0.21650635 -0.86602540  0.21650635
 q=   0.86602540 -0.21650635  0.21650635
 q=  -0.86602540  0.21650635  0.21650635
 q=   0.21650635 -0.21650635  0.86602540
  reading force constants from file Ca1H6.dyn26
  nqs=           24
 q=  -0.75777223 -0.10825317 -0.21650635
 q=   0.75777223 -0.21650635 -0.10825317
 q=  -0.75777223 -0.21650635 -0.10825317
 q=  -0.10825317  0.75777223 -0.21650635
 q=   0.75777223  0.10825317 -0.21650635
 q=  -0.10825317  0.21650635  0.75777223
 q=   0.10825317  0.21650635 -0.75777223
 q=  -0.10825317 -0.21650635 -0.75777223
 q=  -0.21650635  0.75777223  0.10825317
 q=   0.21650635 -0.75777223  0.10825317
 q=  -0.21650635 -0.75777223 -0.10825317
 q=   0.75777223 -0.10825317  0.21650635
 q=  -0.75777223  0.10825317  0.21650635
 q=   0.75777223  0.21650635  0.10825317
 q=  -0.75777223 -0.21650635  0.10825317
 q=  -0.75777223  0.21650635 -0.10825317
 q=   0.75777223  0.10825317  0.21650635
 q=  -0.75777223 -0.10825317  0.21650635
 q=   0.21650635  0.75777223 -0.10825317
 q=   0.10825317 -0.75777223 -0.21650635
 q=  -0.21650635  0.10825317 -0.75777223
 q=   0.21650635  0.10825317  0.75777223
 q=  -0.21650635 -0.10825317  0.75777223
 q=   0.21650635 -0.10825317 -0.75777223
  reading force constants from file Ca1H6.dyn27
  nqs=            6
 q=   0.00000000  0.00000000  0.64951910
 q=   0.64951910  0.00000000  0.00000000
 q=  -0.64951910  0.00000000  0.00000000
 q=   0.00000000  0.64951910  0.00000000
 q=   0.00000000 -0.64951910  0.00000000
 q=   0.00000000  0.00000000 -0.64951910
  reading force constants from file Ca1H6.dyn28
  nqs=           12
 q=  -0.86602540 -0.10825320 -0.10825320
 q=  -0.10825320 -0.86602540  0.10825320
 q=   0.10825320  0.86602540  0.10825320
 q=  -0.10825320  0.86602540 -0.10825320
 q=   0.10825320 -0.86602540 -0.10825320
 q=  -0.10825320  0.10825320 -0.86602540
 q=   0.10825320  0.10825320  0.86602540
 q=  -0.10825320 -0.10825320  0.86602540
 q=   0.10825320 -0.10825320 -0.86602540
 q=   0.86602540  0.10825320 -0.10825320
 q=   0.86602540  0.10825320  0.10825320
 q=  -0.86602540 -0.10825320  0.10825320
  reading force constants from file Ca1H6.dyn29
  nqs=            1
 q=  -0.86602540 -0.86602540 -0.86602540

      q-space grid ok, #points =  512

      fft-check warning: sum of imaginary terms = 3.780476E-06
 
   Preparing gamma for a2F 
 
 
 Broadening =      0.005
      q-space grid ok, #points =  512

      fft-check warning: sum of imaginary terms = 3.347537E-06
 
 Broadening =      0.010
      q-space grid ok, #points =  512

      fft-check warning: sum of imaginary terms = 3.358898E-06
 
 Broadening =      0.015
      q-space grid ok, #points =  512

      fft-check warning: sum of imaginary terms = 3.141729E-06
 
 Broadening =      0.020
      q-space grid ok, #points =  512

      fft-check warning: sum of imaginary terms = 2.895575E-06
 
 Broadening =      0.025
      q-space grid ok, #points =  512

      fft-check warning: sum of imaginary terms = 3.051656E-06
 
 Broadening =      0.030
      q-space grid ok, #points =  512

      fft-check warning: sum of imaginary terms = 2.466328E-06
 
 Broadening =      0.035
      q-space grid ok, #points =  512

      fft-check warning: sum of imaginary terms = 3.026912E-06
 
 Broadening =      0.040
      q-space grid ok, #points =  512

      fft-check warning: sum of imaginary terms = 2.719137E-06
 
 Broadening =      0.045
      q-space grid ok, #points =  512

      fft-check warning: sum of imaginary terms = 2.205420E-06
 
 Broadening =      0.050
      q-space grid ok, #points =  512

      fft-check warning: sum of imaginary terms = 2.550160E-06
 
     Q2R          :     10.88s CPU     41.69s WALL

 
   This run was terminated on:   9: 1:17   3Aug2022            

=------------------------------------------------------------------------------=
   JOB DONE.
=------------------------------------------------------------------------------=
