 vasp.5.4.4.18Apr17-6-g9f103f2a35 (build Dec 14 2021 11:48:20) complex          
  
 executed on             LinuxIFC date 2022.12.25  04:53:57
 running on   64 total cores
 distrk:  each k-point on   64 cores,    1 groups
 distr:  one band on NCORES_PER_BAND=  16 cores,    4 groups


--------------------------------------------------------------------------------------------------------


 INCAR:
 POTCAR:    PAW_PBE K_sv_GW 31Mar2010             
 POTCAR:    PAW_PBE Ge 04Okt2005                  
 POTCAR:    PAW_PBE H 15Jun2001                   
 POTCAR:    PAW_PBE K_sv_GW 31Mar2010             
   VRHFIN =K:  3s3p4s1d                                                         
   LEXCH  = PE                                                                  
   EATOM  =   772.5375 eV,   56.7799 Ry                                         
                                                                                
   TITEL  = PAW_PBE K_sv_GW 31Mar2010                                           
   LULTRA =        F    use ultrasoft PP ?                                      
   IUNSCR =        1    unscreen: 0-lin 1-nonlin 2-no                           
   RPACOR =    2.200    partial core radius                                     
   POMASS =   39.098; ZVAL   =    9.000    mass and valenz                      
   RCORE  =    2.800    outmost cutoff radius                                   
   RWIGS  =    2.800; RWIGS  =    1.482    wigner-seitz radius (au A)           
   ENMAX  =  248.998; ENMIN  =  186.749 eV                                      
   RCLOC  =    1.202    cutoff for local pot                                    
   LCOR   =        T    correct aug charges                                     
   LPAW   =        T    paw PP                                                  
   EAUG   =  376.448                                                            
   RMAX   =    2.857    core radius for proj-oper                               
   RAUG   =    1.300    factor for augmentation sphere                          
   RDEP   =    2.874    radius for radial grids                                 
   RDEPT  =    2.211    core radius for aug-charge                              
                                                                                
   Atomic configuration                                                         
    6 entries                                                                   
     n  l   j            E        occ.                                          
     1  0  0.50     -3523.6875   2.0000                                         
     2  0  0.50      -354.9090   2.0000                                         
     2  1  1.50      -281.6268   6.0000                                         
     3  0  0.50       -36.8235   2.0000                                         
     3  1  1.50       -20.2997   6.0000                                         
     3  2  1.50        -0.6270   1.0000                                         
   Description                                                                  
     l       E           TYP  RCUT    TYP  RCUT                                 
     0    -36.8235109     23  1.700                                             
     0    -38.1840935     23  1.700                                             
     0     95.2407820     23  1.700                                             
     1    -20.2996918     23  2.000                                             
     1     40.8174780     23  2.000                                             
     2     -0.6270451     23  2.500                                             
     2      3.9436621     23  2.500                                             
  local pseudopotential read in
  partial core-charges read in
  partial kinetic energy density read in
  kinetic energy density of atom read in
  atomic valenz-charges read in
  non local Contribution for L=           0  read in
    real space projection operators read in
  non local Contribution for L=           0  read in
    real space projection operators read in
  non local Contribution for L=           0  read in
    real space projection operators read in
  non local Contribution for L=           1  read in
    real space projection operators read in
  non local Contribution for L=           1  read in
    real space projection operators read in
  non local Contribution for L=           2  read in
    real space projection operators read in
  non local Contribution for L=           2  read in
    real space projection operators read in
    PAW grid and wavefunctions read in
 
   number of l-projection  operators is LMAX  =           7
   number of lm-projection operators is LMMAX =          19
 
 POTCAR:    PAW_PBE Ge 04Okt2005                  
   VRHFIN =Ge: s2p2                                                             
   LEXCH  = PE                                                                  
   EATOM  =   104.9960 eV,    7.7170 Ry                                         
                                                                                
   TITEL  = PAW_PBE Ge 04Okt2005                                                
   LULTRA =        F    use ultrasoft PP ?                                      
   IUNSCR =        1    unscreen: 0-lin 1-nonlin 2-no                           
   RPACOR =    2.170    partial core radius                                     
   POMASS =   72.610; ZVAL   =    4.000    mass and valenz                      
   RCORE  =    2.300    outmost cutoff radius                                   
   RWIGS  =    2.300; RWIGS  =    1.217    wigner-seitz radius (au A)           
   ENMAX  =  173.807; ENMIN  =  130.355 eV                                      
   ICORE  =        3    local potential                                         
   LCOR   =        T    correct aug charges                                     
   LPAW   =        T    paw PP                                                  
   EAUG   =  385.843                                                            
   DEXC   =    0.000                                                            
   RMAX   =    2.342    core radius for proj-oper                               
   RAUG   =    1.300    factor for augmentation sphere                          
   RDEP   =    2.318    radius for radial grids                                 
   RDEPT  =    2.103    core radius for aug-charge                              
                                                                                
   Atomic configuration                                                         
   10 entries                                                                   
     n  l   j            E        occ.                                          
     1  0  0.50    -10959.8463   2.0000                                         
     2  0  0.50     -1371.6056   2.0000                                         
     2  1  1.50     -1198.4791   6.0000                                         
     3  0  0.50      -168.4733   2.0000                                         
     3  1  1.50      -115.6019   6.0000                                         
     3  2  2.50       -29.3106  10.0000                                         
     4  0  0.50       -11.7309   2.0000                                         
     4  1  0.50        -3.8952   2.0000                                         
     4  2  1.50        -4.0817   0.0000                                         
     4  3  2.50        -4.0817   0.0000                                         
   Description                                                                  
     l       E           TYP  RCUT    TYP  RCUT                                 
     0    -11.7309491     23  2.300                                             
     0     54.4233040     23  2.300                                             
     1     -3.8952258     23  2.300                                             
     1     81.6349560     23  2.300                                             
     2     -4.0817478     23  2.300                                             
     3     -1.3605826      7  2.300                                             
  local pseudopotential read in
  partial core-charges read in
  partial kinetic energy density read in
  kinetic energy density of atom read in
  atomic valenz-charges read in
  non local Contribution for L=           0  read in
    real space projection operators read in
  non local Contribution for L=           0  read in
    real space projection operators read in
  non local Contribution for L=           1  read in
    real space projection operators read in
  non local Contribution for L=           1  read in
    real space projection operators read in
  non local Contribution for L=           2  read in
    real space projection operators read in
    PAW grid and wavefunctions read in
 
   number of l-projection  operators is LMAX  =           5
   number of lm-projection operators is LMMAX =          13
 
 POTCAR:    PAW_PBE H 15Jun2001                   
   VRHFIN =H: ultrasoft test                                                    
   LEXCH  = PE                                                                  
   EATOM  =    12.4884 eV,    0.9179 Ry                                         
                                                                                
   TITEL  = PAW_PBE H 15Jun2001                                                 
   LULTRA =        F    use ultrasoft PP ?                                      
   IUNSCR =        0    unscreen: 0-lin 1-nonlin 2-no                           
   RPACOR =    0.000    partial core radius                                     
   POMASS =    1.000; ZVAL   =    1.000    mass and valenz                      
   RCORE  =    1.100    outmost cutoff radius                                   
   RWIGS  =    0.700; RWIGS  =    0.370    wigner-seitz radius (au A)           
   ENMAX  =  250.000; ENMIN  =  200.000 eV                                      
   RCLOC  =    0.701    cutoff for local pot                                    
   LCOR   =        T    correct aug charges                                     
   LPAW   =        T    paw PP                                                  
   EAUG   =  400.000                                                            
   RMAX   =    1.123    core radius for proj-oper                               
   RAUG   =    1.200    factor for augmentation sphere                          
   RDEP   =    1.112    radius for radial grids                                 
   RDEPT  =    0.926    core radius for aug-charge                              
                                                                                
   Atomic configuration                                                         
    2 entries                                                                   
     n  l   j            E        occ.                                          
     1  0  0.50        -6.4927   1.0000                                         
     2  1  0.50        -3.4015   0.0000                                         
   Description                                                                  
     l       E           TYP  RCUT    TYP  RCUT                                 
     0     -6.4927494     23  1.100                                             
     0      6.8029130     23  1.100                                             
     1     -4.0817478     23  1.100                                             
  local pseudopotential read in
  atomic valenz-charges read in
  non local Contribution for L=           0  read in
    real space projection operators read in
  non local Contribution for L=           0  read in
    real space projection operators read in
  non local Contribution for L=           1  read in
    real space projection operators read in
    PAW grid and wavefunctions read in
 
   number of l-projection  operators is LMAX  =           3
   number of lm-projection operators is LMMAX =           5
 

 ----------------------------------------------------------------------------- 
|                                                                             |
|  ADVICE TO THIS USER RUNNING 'VASP/VAMP'   (HEAR YOUR MASTER'S VOICE ...):  |
|                                                                             |
|      You have a (more or less) 'large supercell' and for larger cells       |
|      it might be more efficient to use real space projection opertators     |
|      So try LREAL= Auto  in the INCAR   file.                               |
|      Mind:          For very  accurate calculation you might also keep the  |
|      reciprocal projection scheme          (i.e. LREAL=.FALSE.)             |
|                                                                             |
 ----------------------------------------------------------------------------- 

  PAW_PBE K_sv_GW 31Mar2010             :
 energy of atom  1       EATOM= -772.5375
 kinetic energy error for atom=    0.0135 (will be added to EATOM!!)
  PAW_PBE Ge 04Okt2005                  :
 energy of atom  2       EATOM= -104.9960
 kinetic energy error for atom=    0.0003 (will be added to EATOM!!)
  PAW_PBE H 15Jun2001                   :
 energy of atom  3       EATOM=  -12.4884
 kinetic energy error for atom=    0.0072 (will be added to EATOM!!)
 
 
 POSCAR:  K-Ge-H                                 
  positions in direct lattice
  velocities in cartesian coordinates
 exchange correlation table for  LEXCH =        8
   RHO(1)=    0.500       N(1)  =     2000
   RHO(2)=  100.500       N(2)  =     4000
 


--------------------------------------------------------------------------------------------------------


 ion  position               nearest neighbor table
   1  0.667  0.333  0.038-
   2  0.330  0.670  0.737-
   3  0.667  0.333  0.322-   4 2.30
   4  0.667  0.333  0.524-   3 2.30
   5  0.334  0.666  0.451-  21 1.53  13 1.55  14 1.55  12 1.56
   6  0.865  0.076  0.005-   9 0.75
   7  0.920  0.784  0.005-  11 0.75
   8  0.211  0.132  0.005-  10 0.75
   9  0.924  0.135  0.005-   6 0.75
  10  0.216  0.080  0.005-   8 0.75
  11  0.868  0.789  0.005-   7 0.75
  12  0.274  0.726  0.504-   5 1.56
  13  0.266  0.537  0.500-   5 1.55
  14  0.463  0.734  0.500-   5 1.55
  15  0.919  0.081  0.529-  23 0.75
  16  0.035  0.906  0.533-  17 0.75
  17  0.094  0.965  0.533-  16 0.75
  18  0.667  0.333  0.752-  19 0.76
  19  0.667  0.333  0.819-  18 0.76
  20  0.333  0.667  0.934-
  21  0.334  0.666  0.317-   5 1.53
  22  0.997  0.003  0.998-
  23  0.950  0.050  0.524-  15 0.75
 
  LATTYP: Found a base centered monoclinic cell.
 ALAT       =    23.9566292823
 B/A-ratio  =     0.5275657545
 C/A-ratio  =     1.1104479918
 COS(beta)  =    -0.7992244715
  
  Lattice vectors:
  
 A1 = ( -13.5331204970,   0.5163957999,   0.0466178438)
 A2 = (  -7.2137716927,  11.4618285319,   0.0466178319)
 A3 = (  20.7796803491, -11.9971561331, -11.4878618859)


Analysis of symmetry for initial positions (statically):
=====================================================================
 Subroutine PRICEL returns:
 Original cell was already a primitive cell.
 

 Routine SETGRP: Setting up the symmetry group for a 
 base centered monoclinic supercell.


 Subroutine GETGRP returns: Found  2 space group operations
 (whereof  2 operations were pure point group operations)
 out of a pool of  4 trial point group operations.


The static configuration has the point symmetry C_1h.


Analysis of symmetry for dynamics (positions and initial velocities):
=====================================================================
 Subroutine PRICEL returns:
 Original cell was already a primitive cell.
 

 Routine SETGRP: Setting up the symmetry group for a 
 base centered monoclinic supercell.


 Subroutine GETGRP returns: Found  2 space group operations
 (whereof  2 operations were pure point group operations)
 out of a pool of  4 trial point group operations.


The dynamic configuration has the point symmetry C_1h.


 Subroutine INISYM returns: Found  2 space group operations
 (whereof  2 operations are pure point group operations),
 and found     1 'primitive' translations

 
 

Automatic generation of k-mesh.
 generate k-points for:    2    2    2
Space group operators:
 irot       det(A)        alpha          n_x          n_y          n_z        tau_x        tau_y        tau_z
    1     1.000000     0.000001     1.000000     0.000000     0.000000     0.000000     0.000000     0.000000
    2    -1.000000   179.999999     0.500000     0.866025    -0.000000     0.000000     0.000000     0.000000
 
 Subroutine IBZKPT returns following result:
 ===========================================
 
 Found      6 irreducible k-points:
 
 Following reciprocal coordinates:
            Coordinates               Weight
  0.000000  0.000000  0.000000      1.000000
  0.500000  0.000000  0.000000      2.000000
  0.500000  0.500000  0.000000      1.000000
  0.000000  0.000000  0.500000      1.000000
  0.500000  0.000000  0.500000      2.000000
  0.500000  0.500000  0.500000      1.000000
 
 Following cartesian coordinates:
            Coordinates               Weight
  0.000000  0.000000  0.000000      1.000000
  0.037856  0.023825  0.000069      2.000000
  0.039561  0.068522 -0.000000      1.000000
  0.000148 -0.000085  0.043881      1.000000
  0.038004  0.023740  0.043950      2.000000
  0.039709  0.068436  0.043881      1.000000
 


--------------------------------------------------------------------------------------------------------




 Dimension of arrays:
   k-points           NKPTS =      6   k-points in BZ     NKDIM =      6   number of bands    NBANDS=     36
   number of dos      NEDOS =    301   number of ions     NIONS =     23
   non local maximal  LDIM  =      7   non local SUM 2l+1 LMDIM =     19
   total plane-waves  NPLWV = 737280
   max r-space proj   IRMAX =      1   max aug-charges    IRDMAX=  24302
   dimension x,y,z NGX =    96 NGY =   96 NGZ =   80
   dimension x,y,z NGXF=   192 NGYF=  192 NGZF=  160
   support grid    NGXF=   192 NGYF=  192 NGZF=  160
   ions per type =               2   3  18
   NGX,Y,Z   is equivalent  to a cutoff of  11.78, 11.78, 11.67 a.u.
   NGXF,Y,Z  is equivalent  to a cutoff of  23.57, 23.57, 23.34 a.u.

 SYSTEM =  OPT                                     
 POSCAR =   K-Ge-H                                 

 Startparameter for this run:
   NWRITE =      2    write-flag & timer
   PREC   = accura    normal or accurate (medium, high low for compatibility)
   ISTART =      0    job   : 0-new  1-cont  2-samecut
   ICHARG =      2    charge: 1-file 2-atom 10-const
   ISPIN  =      1    spin polarized calculation?
   LNONCOLLINEAR =      F non collinear calculations
   LSORBIT =      F    spin-orbit coupling
   INIWAV =      1    electr: 0-lowe 1-rand  2-diag
   LASPH  =      F    aspherical Exc in radial PAW
   METAGGA=      F    non-selfconsistent MetaGGA calc.

 Electronic Relaxation 1
   ENCUT  =  420.0 eV  30.87 Ry    5.56 a.u.  22.63 22.63 19.04*2*pi/ulx,y,z
   ENINI  =  420.0     initial cutoff
   ENAUG  =  400.0 eV  augmentation charge cutoff
   NELM   =     60;   NELMIN=  2; NELMDL= -5     # of ELM steps 
   EDIFF  = 0.1E-04   stopping-criterion for ELM
   LREAL  =      F    real-space projection
   NLSPLINE    = F    spline interpolate recip. space projectors
   LCOMPAT=      F    compatible to vasp.4.4
   GGA_COMPAT  = T    GGA compatible to vasp.4.4-vasp.4.6
   LMAXPAW     = -100 max onsite density
   LMAXMIX     =    2 max onsite mixed and CHGCAR
   VOSKOWN=      0    Vosko Wilk Nusair interpolation
   ROPT   =    0.00000   0.00000   0.00000
 Ionic relaxation
   EDIFFG = -.1E+00   stopping-criterion for IOM
   NSW    =    300    number of steps for IOM
   NBLOCK =      1;   KBLOCK =    300    inner block; outer block 
   IBRION =      2    ionic relax: 0-MD 1-quasi-New 2-CG
   NFREE  =      1    steps in history (QN), initial steepest desc. (CG)
   ISIF   =      3    stress and relaxation
   IWAVPR =     11    prediction:  0-non 1-charg 2-wave 3-comb
   ISYM   =      2    0-nonsym 1-usesym 2-fastsym
   LCORR  =      T    Harris-Foulkes like correction to forces

   POTIM  = 0.0500    time-step for ionic-motion
   TEIN   =    0.0    initial temperature
   TEBEG  =    0.0;   TEEND  =   0.0 temperature during run
   SMASS  =  -3.00    Nose mass-parameter (am)
   estimated Nose-frequenzy (Omega)   =  0.10E-29 period in steps =****** mass=  -0.419E-26a.u.
   SCALEE = 1.0000    scale energy and forces
   NPACO  =    256;   APACO  = 16.0  distance and # of slots for P.C.
   PSTRESS= 2000.0 pullay stress

  Mass of Ions in am
   POMASS =  39.10 72.61  1.00
  Ionic Valenz
   ZVAL   =   9.00  4.00  1.00
  Atomic Wigner-Seitz radii
   RWIGS  =  -1.00 -1.00 -1.00
  virtual crystal weights 
   VCA    =   1.00  1.00  1.00
   NELECT =      48.0000    total number of electrons
   NUPDOWN=      -1.0000    fix difference up-down

 DOS related values:
   EMIN   =  10.00;   EMAX   =-10.00  energy-range for DOS
   EFERMI =   0.00
   ISMEAR =     0;   SIGMA  =   0.05  broadening in eV -4-tet -1-fermi 0-gaus

 Electronic relaxation 2 (details)
   IALGO  =     38    algorithm
   LDIAG  =      T    sub-space diagonalisation (order eigenvalues)
   LSUBROT=      F    optimize rotation matrix (better conditioning)
   TURBO    =      0    0=normal 1=particle mesh
   IRESTART =      0    0=no restart 2=restart with 2 vectors
   NREBOOT  =      0    no. of reboots
   NMIN     =      0    reboot dimension
   EREF     =   0.00    reference energy to select bands
   IMIX   =      4    mixing-type and parameters
     AMIX     =   0.40;   BMIX     =  1.00
     AMIX_MAG =   1.60;   BMIX_MAG =  1.00
     AMIN     =   0.10
     WC   =   100.;   INIMIX=   1;  MIXPRE=   1;  MAXMIX= -45

 Intra band minimization:
   WEIMIN = 0.0010     energy-eigenvalue tresh-hold
   EBREAK =  0.69E-07  absolut break condition
   DEPER  =   0.30     relativ break condition  

   TIME   =   0.40     timestep for ELM

  volume/ion in A,a.u.               =      75.00       506.13
  Fermi-wavevector in a.u.,A,eV,Ry     =   0.496088  0.937471  3.348441  0.246103
  Thomas-Fermi vector in A             =   1.501873
 
 Write flags
   LWAVE        =      F    write WAVECAR
   LDOWNSAMPLE  =      F    k-point downsampling of WAVECAR
   LCHARG       =      F    write CHGCAR
   LVTOT        =      F    write LOCPOT, total local potential
   LVHAR        =      F    write LOCPOT, Hartree potential only
   LELF         =      F    write electronic localiz. function (ELF)
   LORBIT       =      0    0 simple, 1 ext, 2 COOP (PROOUT), +10 PAW based schemes


 Dipole corrections
   LMONO  =      F    monopole corrections only (constant potential shift)
   LDIPOL =      F    correct potential (dipole corrections)
   IDIPOL =      0    1-x, 2-y, 3-z, 4-all directions 
   EPSILON=  1.0000000 bulk dielectric constant

 Exchange correlation treatment:
   GGA     =    --    GGA type
   LEXCH   =     8    internal setting for exchange type
   VOSKOWN=      0    Vosko Wilk Nusair interpolation
   LHFCALC =     F    Hartree Fock is set to
   LHFONE  =     F    Hartree Fock one center treatment
   AEXX    =    0.0000 exact exchange contribution

 Linear response parameters
   LEPSILON=     F    determine dielectric tensor
   LRPA    =     F    only Hartree local field effects (RPA)
   LNABLA  =     F    use nabla operator in PAW spheres
   LVEL    =     F    velocity operator in full k-point grid
   LINTERFAST=   F  fast interpolation
   KINTER  =     0    interpolate to denser k-point grid
   CSHIFT  =0.1000    complex shift for real part using Kramers Kronig
   OMEGAMAX=  -1.0    maximum frequency
   DEG_THRESHOLD= 0.2000000E-02 threshold for treating states as degnerate
   RTIME   =   -0.100 relaxation time in fs
  (WPLASMAI=    0.000 imaginary part of plasma frequency in eV, 0.658/RTIME)
   DFIELD  = 0.0000000 0.0000000 0.0000000 field for delta impulse in time
 
 Orbital magnetization related:
   ORBITALMAG=     F  switch on orbital magnetization
   LCHIMAG   =     F  perturbation theory with respect to B field
   DQ        =  0.001000  dq finite difference perturbation B field
   LLRAUG    =     F  two centre corrections for induced B field



--------------------------------------------------------------------------------------------------------


 conjugate gradient relaxation of ions
 charge density and potential will be updated during run
 non-spin polarized calculation
 Variant of blocked Davidson
 Davidson routine will perform the subspace rotation
 perform sub-space diagonalisation
    after iterative eigenvector-optimisation
 modified Broyden-mixing scheme, WC =      100.0
 initial mixing is a Kerker type mixing with AMIX =  0.4000 and BMIX =      1.0000
 Hartree-type preconditioning will be used
 using additional bands           12
 reciprocal scheme for non local part
 use partial core corrections
 calculate Harris-corrections to forces 
   (improved forces if not selfconsistent)
 use gradient corrections 
 use of overlap-Matrix (Vanderbilt PP)
 Gauss-broadening in eV      SIGMA  =   0.05


--------------------------------------------------------------------------------------------------------


  energy-cutoff  :      420.00
  volume of cell :     1725.00
      direct lattice vectors                 reciprocal lattice vectors
    13.533120497 -0.516395800 -0.046617844     0.075711500  0.047650251  0.000138691
    -7.213771693 11.461828532  0.046617832     0.003410582  0.089393208 -0.000138710
    -0.032788159  0.018931801 11.394626210     0.000295798 -0.000170779  0.087761802

  length of vectors
    13.543049444 13.543049455 11.394689111     0.089458353  0.089458353  0.087762467


 
 k-points in units of 2pi/SCALE and weight: read from INCAR                         
   0.00000000  0.00000000  0.00000000       0.125
   0.03785575  0.02382513  0.00006935       0.250
   0.03956104  0.06852173 -0.00000001       0.125
   0.00014790 -0.00008539  0.04388090       0.125
   0.03800365  0.02373974  0.04395025       0.250
   0.03970894  0.06843634  0.04388089       0.125
 
 k-points in reciprocal lattice and weights: read from INCAR                         
   0.00000000  0.00000000  0.00000000       0.125
   0.50000000  0.00000000  0.00000000       0.250
   0.50000000  0.50000000  0.00000000       0.125
   0.00000000  0.00000000  0.50000000       0.125
   0.50000000  0.00000000  0.50000000       0.250
   0.50000000  0.50000000  0.50000000       0.125
 
 position of ions in fractional coordinates (direct lattice) 
   0.66677622  0.33322378  0.03762634
   0.32980389  0.67019611  0.73662923
   0.66680105  0.33319896  0.32193425
   0.66697124  0.33302876  0.52368911
   0.33360585  0.66639415  0.45127560
   0.86489967  0.07574558  0.00499374
   0.92027260  0.78358058  0.00519189
   0.21062056  0.13188818  0.00489742
   0.92425442  0.13510033  0.00499374
   0.21641942  0.07972740  0.00519189
   0.86811182  0.78937944  0.00489742
   0.27387258  0.72612742  0.50413390
   0.26595650  0.53678920  0.49991588
   0.46321080  0.73404350  0.49991588
   0.91870133  0.08129867  0.52856225
   0.03469749  0.90605567  0.53289006
   0.09394433  0.96530251  0.53289006
   0.66683938  0.33316062  0.75179803
   0.66678944  0.33321056  0.81878048
   0.33313496  0.66686504  0.93358972
   0.33399084  0.66600916  0.31725210
   0.99708721  0.00291279  0.99801636
   0.94993841  0.05006159  0.52379791
 
 position of ions in cartesian coordinates  (Angst):
   6.61852899  3.47574571  0.41318854
  -0.39551859  7.52530923  8.40948310
   6.60972207  3.48083083  3.65276866
   6.60663791  3.48261177  5.95167403
  -0.30728351  7.47436624  5.15763063
  11.15821636  0.42164687  0.02011319
   6.80141836  8.50613960  0.05278737
   1.89878154  1.40300889  0.05213390
  11.53329972  1.07131027  0.02011319
   2.35352463  0.80216200  0.05278738
   6.05369815  8.59953526  0.05213390
  -1.54829648  8.19086553  5.76550045
  -0.28944463  6.02471124  5.70898023
   0.95707408  8.18374488  5.70898022
  11.82909514  0.46742456  5.98373139
  -6.08398589 10.37722571  6.11270391
  -5.70958450 11.02570792  6.11270391
   6.59642294  3.48850975  8.55090213
   6.59319066  3.49037601  9.31414674
  -0.33286718  7.48913772 10.65346362
  -0.29490179  7.46721744  3.63044702
  13.43996596 -0.46261145 11.32567711
  12.47732363  0.09316965  5.92653107
 


--------------------------------------------------------------------------------------------------------


 k-point  1 :   0.0000 0.0000 0.0000  plane waves:   33717
 k-point  2 :   0.5000 0.0000 0.0000  plane waves:   33682
 k-point  3 :   0.5000 0.5000 0.0000  plane waves:   33652
 k-point  4 :   0.0000 0.0000 0.5000  plane waves:   33702
 k-point  5 :   0.5000 0.0000 0.5000  plane waves:   33750
 k-point  6 :   0.5000 0.5000 0.5000  plane waves:   33684

 maximum and minimum number of plane-waves per node :      2139     2067

 maximum number of plane-waves:     33750
 maximum index in each direction: 
   IXMAX=   22   IYMAX=   22   IZMAX=   19
   IXMIN=  -23   IYMIN=  -23   IZMIN=  -19


 parallel 3D FFT for wavefunctions:
    minimum data exchange during FFTs selected (reduces bandwidth)
 parallel 3D FFT for charge:
    minimum data exchange during FFTs selected (reduces bandwidth)


 total amount of memory used by VASP MPI-rank0    50741. kBytes
=======================================================================

   base      :      30000. kBytes
   nonl-proj :       6543. kBytes
   fftplans  :       4517. kBytes
   grid      :       7805. kBytes
   one-center:         34. kBytes
   wavefun   :       1842. kBytes
 
     INWAV:  cpu time    0.0000: real time    0.0000
 Broyden mixing: mesh for mixing (old mesh)
   NGX = 45   NGY = 45   NGZ = 39
  (NGX  =192   NGY  =192   NGZ  =160)
  gives a total of  78975 points

 initial charge density was supplied:
 charge density of overlapping atoms calculated
 number of electron      48.0000000 magnetization 
 keeping initial charge density in first step


--------------------------------------------------------------------------------------------------------


 Maximum index for augmentation-charges          870 (set IRDMAX)


--------------------------------------------------------------------------------------------------------


 First call to EWALD:  gamma=   0.148
 Maximum number of real-space cells 3x 3x 3
 Maximum number of reciprocal cells 3x 3x 3

    FEWALD:  cpu time    0.0018: real time    0.0019


--------------------------------------- Iteration      1(   1)  ---------------------------------------


    POTLOK:  cpu time    0.0567: real time    0.0612
    SETDIJ:  cpu time    0.0037: real time    0.0040
     EDDAV:  cpu time    0.5923: real time    0.5977
       DOS:  cpu time    0.0005: real time    0.0005
    --------------------------------------------
      LOOP:  cpu time    0.6533: real time    0.6633

 eigenvalue-minimisations  :   480
 total energy-change (2. order) : 0.3455723E+03  (-0.1106199E+04)
 number of electron      48.0000000 magnetization 
 augmentation part       48.0000000 magnetization 

 Free energy of the ion-electron system (eV)
  ---------------------------------------------------
  alpha Z        PSCENC =         8.27008202
  Ewald energy   TEWEN  =      -386.82626598
  -Hartree energ DENC   =     -1222.12266823
  -exchange      EXHF   =         0.00000000
  -V(xc)+E(xc)   XCENC  =        83.71761633
  PAW double counting   =      1457.96727335    -1404.30389563
  entropy T*S    EENTRO =        -0.00749860
  eigenvalues    EBANDS =      -275.81949637
  atomic energy  EATOM  =      2084.69711942
  Solvation  Ediel_sol  =         0.00000000
  ---------------------------------------------------
  free energy    TOTEN  =       345.57226630 eV

  energy without entropy =      345.57976491  energy(sigma->0) =      345.57601560


--------------------------------------------------------------------------------------------------------




--------------------------------------- Iteration      1(   2)  ---------------------------------------


     EDDAV:  cpu time    0.8182: real time    0.8234
       DOS:  cpu time    0.0003: real time    0.0003
    --------------------------------------------
      LOOP:  cpu time    0.8185: real time    0.8237

 eigenvalue-minimisations  :   784
 total energy-change (2. order) :-0.3372703E+03  (-0.3276516E+03)
 number of electron      48.0000000 magnetization 
 augmentation part       48.0000000 magnetization 

 Free energy of the ion-electron system (eV)
  ---------------------------------------------------
  alpha Z        PSCENC =         8.27008202
  Ewald energy   TEWEN  =      -386.82626598
  -Hartree energ DENC   =     -1222.12266823
  -exchange      EXHF   =         0.00000000
  -V(xc)+E(xc)   XCENC  =        83.71761633
  PAW double counting   =      1457.96727335    -1404.30389563
  entropy T*S    EENTRO =        -0.01443265
  eigenvalues    EBANDS =      -613.08290054
  atomic energy  EATOM  =      2084.69711942
  Solvation  Ediel_sol  =         0.00000000
  ---------------------------------------------------
  free energy    TOTEN  =         8.30192809 eV

  energy without entropy =        8.31636074  energy(sigma->0) =        8.30914441


--------------------------------------------------------------------------------------------------------




--------------------------------------- Iteration      1(   3)  ---------------------------------------


     EDDAV:  cpu time    0.6251: real time    0.6286
       DOS:  cpu time    0.0003: real time    0.0003
    --------------------------------------------
      LOOP:  cpu time    0.6254: real time    0.6289

 eigenvalue-minimisations  :   568
 total energy-change (2. order) :-0.8415384E+02  (-0.8343199E+02)
 number of electron      48.0000000 magnetization 
 augmentation part       48.0000000 magnetization 

 Free energy of the ion-electron system (eV)
  ---------------------------------------------------
  alpha Z        PSCENC =         8.27008202
  Ewald energy   TEWEN  =      -386.82626598
  -Hartree energ DENC   =     -1222.12266823
  -exchange      EXHF   =         0.00000000
  -V(xc)+E(xc)   XCENC  =        83.71761633
  PAW double counting   =      1457.96727335    -1404.30389563
  entropy T*S    EENTRO =        -0.04646780
  eigenvalues    EBANDS =      -697.20470806
  atomic energy  EATOM  =      2084.69711942
  Solvation  Ediel_sol  =         0.00000000
  ---------------------------------------------------
  free energy    TOTEN  =       -75.85191459 eV

  energy without entropy =      -75.80544679  energy(sigma->0) =      -75.82868069


--------------------------------------------------------------------------------------------------------




--------------------------------------- Iteration      1(   4)  ---------------------------------------


     EDDAV:  cpu time    0.7671: real time    0.7713
       DOS:  cpu time    0.0003: real time    0.0003
    --------------------------------------------
      LOOP:  cpu time    0.7674: real time    0.7717

 eigenvalue-minimisations  :   720
 total energy-change (2. order) :-0.5658103E+01  (-0.5640531E+01)
 number of electron      48.0000000 magnetization 
 augmentation part       48.0000000 magnetization 

 Free energy of the ion-electron system (eV)
  ---------------------------------------------------
  alpha Z        PSCENC =         8.27008202
  Ewald energy   TEWEN  =      -386.82626598
  -Hartree energ DENC   =     -1222.12266823
  -exchange      EXHF   =         0.00000000
  -V(xc)+E(xc)   XCENC  =        83.71761633
  PAW double counting   =      1457.96727335    -1404.30389563
  entropy T*S    EENTRO =        -0.05637458
  eigenvalues    EBANDS =      -702.85290422
  atomic energy  EATOM  =      2084.69711942
  Solvation  Ediel_sol  =         0.00000000
  ---------------------------------------------------
  free energy    TOTEN  =       -81.51001752 eV

  energy without entropy =      -81.45364295  energy(sigma->0) =      -81.48183023


--------------------------------------------------------------------------------------------------------




--------------------------------------- Iteration      1(   5)  ---------------------------------------


     EDDAV:  cpu time    0.7250: real time    0.7492
       DOS:  cpu time    0.0003: real time    0.0003
    CHARGE:  cpu time    0.0924: real time    0.0953
    MIXING:  cpu time    0.0028: real time    0.0031
    --------------------------------------------
      LOOP:  cpu time    0.8205: real time    0.8478

 eigenvalue-minimisations  :   616
 total energy-change (2. order) :-0.7391620E-01  (-0.7381228E-01)
 number of electron      48.0000004 magnetization 
 augmentation part       -2.1614132 magnetization 

 Broyden mixing:
  rms(total) = 0.15304E+01    rms(broyden)= 0.15302E+01
  rms(prec ) = 0.19508E+01
  weight for this iteration     100.00

 Free energy of the ion-electron system (eV)
  ---------------------------------------------------
  alpha Z        PSCENC =         8.27008202
  Ewald energy   TEWEN  =      -386.82626598
  -Hartree energ DENC   =     -1222.12266823
  -exchange      EXHF   =         0.00000000
  -V(xc)+E(xc)   XCENC  =        83.71761633
  PAW double counting   =      1457.96727335    -1404.30389563
  entropy T*S    EENTRO =        -0.05639108
  eigenvalues    EBANDS =      -702.92680392
  atomic energy  EATOM  =      2084.69711942
  Solvation  Ediel_sol  =         0.00000000
  ---------------------------------------------------
  free energy    TOTEN  =       -81.58393372 eV

  energy without entropy =      -81.52754264  energy(sigma->0) =      -81.55573818


--------------------------------------------------------------------------------------------------------




--------------------------------------- Iteration      1(   6)  ---------------------------------------


    POTLOK:  cpu time    0.0538: real time    0.0540
    SETDIJ:  cpu time    0.0046: real time    0.0046
     EDDAV:  cpu time    0.6571: real time    0.6609
       DOS:  cpu time    0.0002: real time    0.0002
    CHARGE:  cpu time    0.0851: real time    0.0864
    MIXING:  cpu time    0.0017: real time    0.0019
    --------------------------------------------
      LOOP:  cpu time    0.8025: real time    0.8081

 eigenvalue-minimisations  :   608
 total energy-change (2. order) : 0.3644256E+01  (-0.2153069E+01)
 number of electron      48.0000004 magnetization 
 augmentation part       -2.3009747 magnetization 

 Broyden mixing:
  rms(total) = 0.10933E+01    rms(broyden)= 0.10931E+01
  rms(prec ) = 0.16018E+01
  weight for this iteration     100.00

 eigenvalues of (default mixing * dielectric matrix)
  average eigenvalue GAMMA=   0.8892
  0.8892

 Free energy of the ion-electron system (eV)
  ---------------------------------------------------
  alpha Z        PSCENC =         8.27008202
  Ewald energy   TEWEN  =      -386.82626598
  -Hartree energ DENC   =     -1248.23194808
  -exchange      EXHF   =         0.00000000
  -V(xc)+E(xc)   XCENC  =        87.53205368
  PAW double counting   =      1565.10580655    -1511.76618738
  entropy T*S    EENTRO =        -0.00000000
  eigenvalues    EBANDS =      -676.72033764
  atomic energy  EATOM  =      2084.69711942
  Solvation  Ediel_sol  =         0.00000000
  ---------------------------------------------------
  free energy    TOTEN  =       -77.93967741 eV

  energy without entropy =      -77.93967741  energy(sigma->0) =      -77.93967741


--------------------------------------------------------------------------------------------------------




--------------------------------------- Iteration      1(   7)  ---------------------------------------


    POTLOK:  cpu time    0.0538: real time    0.0541
    SETDIJ:  cpu time    0.0028: real time    0.0028
     EDDAV:  cpu time    0.5887: real time    0.5916
       DOS:  cpu time    0.0004: real time    0.0004
    CHARGE:  cpu time    0.0878: real time    0.0913
    MIXING:  cpu time    0.0014: real time    0.0014
    --------------------------------------------
      LOOP:  cpu time    0.7349: real time    0.7416

 eigenvalue-minimisations  :   524
 total energy-change (2. order) : 0.3089801E+01  (-0.1791888E+00)
 number of electron      48.0000004 magnetization 
 augmentation part       -2.1563729 magnetization 

 Broyden mixing:
  rms(total) = 0.83056E+00    rms(broyden)= 0.83040E+00
  rms(prec ) = 0.11156E+01
  weight for this iteration     100.00

 eigenvalues of (default mixing * dielectric matrix)
  average eigenvalue GAMMA=   1.2247
  2.0595  0.3899

 Free energy of the ion-electron system (eV)
  ---------------------------------------------------
  alpha Z        PSCENC =         8.27008202
  Ewald energy   TEWEN  =      -386.82626598
  -Hartree energ DENC   =     -1261.90740427
  -exchange      EXHF   =         0.00000000
  -V(xc)+E(xc)   XCENC  =        88.87460881
  PAW double counting   =      1635.69135384    -1582.45532631
  entropy T*S    EENTRO =        -0.05641753
  eigenvalues    EBANDS =      -661.13762640
  atomic energy  EATOM  =      2084.69711942
  Solvation  Ediel_sol  =         0.00000000
  ---------------------------------------------------
  free energy    TOTEN  =       -74.84987641 eV

  energy without entropy =      -74.79345888  energy(sigma->0) =      -74.82166764


--------------------------------------------------------------------------------------------------------




--------------------------------------- Iteration      1(   8)  ---------------------------------------


    POTLOK:  cpu time    0.0534: real time    0.0536
    SETDIJ:  cpu time    0.0028: real time    0.0027
     EDDAV:  cpu time    0.6592: real time    0.6629
       DOS:  cpu time    0.0002: real time    0.0002
    CHARGE:  cpu time    0.0867: real time    0.0870
    MIXING:  cpu time    0.0014: real time    0.0014
    --------------------------------------------
      LOOP:  cpu time    0.8036: real time    0.8078

 eigenvalue-minimisations  :   576
 total energy-change (2. order) : 0.5877003E+00  (-0.1119173E+01)
 number of electron      48.0000004 magnetization 
 augmentation part       -2.2684894 magnetization 

 Broyden mixing:
  rms(total) = 0.10436E+01    rms(broyden)= 0.10434E+01
  rms(prec ) = 0.15907E+01
  weight for this iteration     100.00

 eigenvalues of (default mixing * dielectric matrix)
  average eigenvalue GAMMA=   0.8648
  1.8649  0.3648  0.3648

 Free energy of the ion-electron system (eV)
  ---------------------------------------------------
  alpha Z        PSCENC =         8.27008202
  Ewald energy   TEWEN  =      -386.82626598
  -Hartree energ DENC   =     -1293.40081176
  -exchange      EXHF   =         0.00000000
  -V(xc)+E(xc)   XCENC  =        92.80457601
  PAW double counting   =      1784.34530868    -1731.17899072
  entropy T*S    EENTRO =        -0.00000000
  eigenvalues    EBANDS =      -632.97319378
  atomic energy  EATOM  =      2084.69711942
  Solvation  Ediel_sol  =         0.00000000
  ---------------------------------------------------
  free energy    TOTEN  =       -74.26217611 eV

  energy without entropy =      -74.26217611  energy(sigma->0) =      -74.26217611


--------------------------------------------------------------------------------------------------------




--------------------------------------- Iteration      1(   9)  ---------------------------------------


    POTLOK:  cpu time    0.0543: real time    0.0580
    SETDIJ:  cpu time    0.0048: real time    0.0048
     EDDAV:  cpu time    0.6757: real time    0.6794
       DOS:  cpu time    0.0004: real time    0.0003
    CHARGE:  cpu time    0.0896: real time    0.0906
    MIXING:  cpu time    0.0017: real time    0.0017
    --------------------------------------------
      LOOP:  cpu time    0.8263: real time    0.8348

 eigenvalue-minimisations  :   632
 total energy-change (2. order) : 0.1267213E+01  (-0.1311893E-01)
 number of electron      48.0000004 magnetization 
 augmentation part       -2.2681379 magnetization 

 Broyden mixing:
  rms(total) = 0.59961E+00    rms(broyden)= 0.59931E+00
  rms(prec ) = 0.94220E+00
  weight for this iteration     100.00

 eigenvalues of (default mixing * dielectric matrix)
  average eigenvalue GAMMA=   1.0876
  1.9317  1.9317  0.3351  0.1519

 Free energy of the ion-electron system (eV)
  ---------------------------------------------------
  alpha Z        PSCENC =         8.27008202
  Ewald energy   TEWEN  =      -386.82626598
  -Hartree energ DENC   =     -1291.28271944
  -exchange      EXHF   =         0.00000000
  -V(xc)+E(xc)   XCENC  =        92.53107321
  PAW double counting   =      1772.48040638    -1719.32109294
  entropy T*S    EENTRO =        -0.02992237
  eigenvalues    EBANDS =      -633.51364331
  atomic energy  EATOM  =      2084.69711942
  Solvation  Ediel_sol  =         0.00000000
  ---------------------------------------------------
  free energy    TOTEN  =       -72.99496301 eV

  energy without entropy =      -72.96504064  energy(sigma->0) =      -72.98000183


--------------------------------------------------------------------------------------------------------




--------------------------------------- Iteration      1(  10)  ---------------------------------------


    POTLOK:  cpu time    0.0531: real time    0.0532
    SETDIJ:  cpu time    0.0027: real time    0.0027
     EDDAV:  cpu time    0.6020: real time    0.6055
       DOS:  cpu time    0.0004: real time    0.0004
    CHARGE:  cpu time    0.0915: real time    0.0920
    MIXING:  cpu time    0.0015: real time    0.0015
    --------------------------------------------
      LOOP:  cpu time    0.7511: real time    0.7552

 eigenvalue-minimisations  :   536
 total energy-change (2. order) :-0.1347884E+01  (-0.1425721E+00)
 number of electron      48.0000004 magnetization 
 augmentation part       -2.1386186 magnetization 

 Broyden mixing:
  rms(total) = 0.48921E+00    rms(broyden)= 0.48898E+00
  rms(prec ) = 0.83779E+00
  weight for this iteration     100.00

 eigenvalues of (default mixing * dielectric matrix)
  average eigenvalue GAMMA=   1.0529
  2.2919  1.2501  1.2501  0.3006  0.1719

 Free energy of the ion-electron system (eV)
  ---------------------------------------------------
  alpha Z        PSCENC =         8.27008202
  Ewald energy   TEWEN  =      -386.82626598
  -Hartree energ DENC   =     -1296.70141606
  -exchange      EXHF   =         0.00000000
  -V(xc)+E(xc)   XCENC  =        92.56820395
  PAW double counting   =      1790.80120178    -1737.47730286
  entropy T*S    EENTRO =        -0.05637494
  eigenvalues    EBANDS =      -629.61809395
  atomic energy  EATOM  =      2084.69711942
  Solvation  Ediel_sol  =         0.00000000
  ---------------------------------------------------
  free energy    TOTEN  =       -74.34284661 eV

  energy without entropy =      -74.28647167  energy(sigma->0) =      -74.31465914


--------------------------------------------------------------------------------------------------------




--------------------------------------- Iteration      1(  11)  ---------------------------------------


    POTLOK:  cpu time    0.0528: real time    0.0536
    SETDIJ:  cpu time    0.0028: real time    0.0028
     EDDAV:  cpu time    0.6390: real time    0.6674
       DOS:  cpu time    0.0004: real time    0.0004
    CHARGE:  cpu time    0.0897: real time    0.0899
    MIXING:  cpu time    0.0019: real time    0.0019
    --------------------------------------------
      LOOP:  cpu time    0.7865: real time    0.8159

 eigenvalue-minimisations  :   588
 total energy-change (2. order) : 0.1088865E+01  (-0.3836974E-01)
 number of electron      48.0000004 magnetization 
 augmentation part       -2.1452242 magnetization 

 Broyden mixing:
  rms(total) = 0.38650E+00    rms(broyden)= 0.38650E+00
  rms(prec ) = 0.70123E+00
  weight for this iteration     100.00

 eigenvalues of (default mixing * dielectric matrix)
  average eigenvalue GAMMA=   1.1221
  2.1617  1.5485  1.5485  0.9959  0.3064  0.1716

 Free energy of the ion-electron system (eV)
  ---------------------------------------------------
  alpha Z        PSCENC =         8.27008202
  Ewald energy   TEWEN  =      -386.82626598
  -Hartree energ DENC   =     -1301.22046041
  -exchange      EXHF   =         0.00000000
  -V(xc)+E(xc)   XCENC  =        93.26630310
  PAW double counting   =      1803.38665842    -1750.07883146
  entropy T*S    EENTRO =        -0.05641766
  eigenvalues    EBANDS =      -624.69216919
  atomic energy  EATOM  =      2084.69711942
  Solvation  Ediel_sol  =         0.00000000
  ---------------------------------------------------
  free energy    TOTEN  =       -73.25398175 eV

  energy without entropy =      -73.19756409  energy(sigma->0) =      -73.22577292


--------------------------------------------------------------------------------------------------------




--------------------------------------- Iteration      1(  12)  ---------------------------------------


    POTLOK:  cpu time    0.0538: real time    0.0541
    SETDIJ:  cpu time    0.0027: real time    0.0027
     EDDAV:  cpu time    0.8680: real time    0.8721
       DOS:  cpu time    0.0002: real time    0.0002
    CHARGE:  cpu time    0.1051: real time    0.1053
    MIXING:  cpu time    0.0052: real time    0.0052
    --------------------------------------------
      LOOP:  cpu time    1.0350: real time    1.0397

 eigenvalue-minimisations  :   552
 total energy-change (2. order) :-0.7881834E+00  (-0.8673237E+00)
 number of electron      48.0000004 magnetization 
 augmentation part       -2.2715543 magnetization 

 Broyden mixing:
  rms(total) = 0.63526E+00    rms(broyden)= 0.63499E+00
  rms(prec ) = 0.10970E+01
  weight for this iteration     100.00

 eigenvalues of (default mixing * dielectric matrix)
  average eigenvalue GAMMA=   1.0776
  2.2180  2.2180  0.9744  0.9744  0.3117  0.1716  0.6749

 Free energy of the ion-electron system (eV)
  ---------------------------------------------------
  alpha Z        PSCENC =         8.27008202
  Ewald energy   TEWEN  =      -386.82626598
  -Hartree energ DENC   =     -1302.55181794
  -exchange      EXHF   =         0.00000000
  -V(xc)+E(xc)   XCENC  =        93.42603224
  PAW double counting   =      1795.41005701    -1742.03946612
  entropy T*S    EENTRO =        -0.00000000
  eigenvalues    EBANDS =      -624.42790581
  atomic energy  EATOM  =      2084.69711942
  Solvation  Ediel_sol  =         0.00000000
  ---------------------------------------------------
  free energy    TOTEN  =       -74.04216516 eV

  energy without entropy =      -74.04216516  energy(sigma->0) =      -74.04216516


--------------------------------------------------------------------------------------------------------




--------------------------------------- Iteration      1(  13)  ---------------------------------------


    POTLOK:  cpu time    0.0647: real time    0.0649
    SETDIJ:  cpu time    0.0123: real time    0.0124
     EDDAV:  cpu time    0.5678: real time    0.5709
       DOS:  cpu time    0.0004: real time    0.0004
    CHARGE:  cpu time    0.0907: real time    0.0910
    MIXING:  cpu time    0.0020: real time    0.0020
    --------------------------------------------
      LOOP:  cpu time    0.7379: real time    0.7414

 eigenvalue-minimisations  :   488
 total energy-change (2. order) : 0.7703849E+00  (-0.3777695E-02)
 number of electron      48.0000004 magnetization 
 augmentation part       -2.2678582 magnetization 

 Broyden mixing:
  rms(total) = 0.59138E+00    rms(broyden)= 0.59137E+00
  rms(prec ) = 0.10358E+01
  weight for this iteration     100.00

 eigenvalues of (default mixing * dielectric matrix)
  average eigenvalue GAMMA=   1.1115
  2.3658  2.3658  0.1716  0.3098  0.8141  0.8141  1.1985  0.8523

 Free energy of the ion-electron system (eV)
  ---------------------------------------------------
  alpha Z        PSCENC =         8.27008202
  Ewald energy   TEWEN  =      -386.82626598
  -Hartree energ DENC   =     -1304.43000982
  -exchange      EXHF   =         0.00000000
  -V(xc)+E(xc)   XCENC  =        93.42894284
  PAW double counting   =      1795.54851385    -1742.14117080
  entropy T*S    EENTRO =        -0.00067190
  eigenvalues    EBANDS =      -621.81831987
  atomic energy  EATOM  =      2084.69711942
  Solvation  Ediel_sol  =         0.00000000
  ---------------------------------------------------
  free energy    TOTEN  =       -73.27178025 eV

  energy without entropy =      -73.27110835  energy(sigma->0) =      -73.27144430


--------------------------------------------------------------------------------------------------------




--------------------------------------- Iteration      1(  14)  ---------------------------------------


    POTLOK:  cpu time    0.0525: real time    0.0527
    SETDIJ:  cpu time    0.0028: real time    0.0029
     EDDAV:  cpu time    0.6070: real time    0.6103
       DOS:  cpu time    0.0004: real time    0.0003
    CHARGE:  cpu time    0.0904: real time    0.0906
    MIXING:  cpu time    0.0024: real time    0.0024
    --------------------------------------------
      LOOP:  cpu time    0.7555: real time    0.7592

 eigenvalue-minimisations  :   528
 total energy-change (2. order) : 0.6654411E-01  (-0.2340635E-02)
 number of electron      48.0000004 magnetization 
 augmentation part       -2.1521356 magnetization 

 Broyden mixing:
  rms(total) = 0.36565E+00    rms(broyden)= 0.36523E+00
  rms(prec ) = 0.67007E+00
  weight for this iteration     100.00

 eigenvalues of (default mixing * dielectric matrix)
  average eigenvalue GAMMA=   1.0838
  2.4379  2.4379  1.2030  1.2030  0.9422  0.1716  0.3085  0.5249  0.5249

 Free energy of the ion-electron system (eV)
  ---------------------------------------------------
  alpha Z        PSCENC =         8.27008202
  Ewald energy   TEWEN  =      -386.82626598
  -Hartree energ DENC   =     -1305.80728454
  -exchange      EXHF   =         0.00000000
  -V(xc)+E(xc)   XCENC  =        93.46625064
  PAW double counting   =      1796.45957564    -1743.04666405
  entropy T*S    EENTRO =        -0.05634336
  eigenvalues    EBANDS =      -620.36170592
  atomic energy  EATOM  =      2084.69711942
  Solvation  Ediel_sol  =         0.00000000
  ---------------------------------------------------
  free energy    TOTEN  =       -73.20523613 eV

  energy without entropy =      -73.14889277  energy(sigma->0) =      -73.17706445


--------------------------------------------------------------------------------------------------------




--------------------------------------- Iteration      1(  15)  ---------------------------------------


    POTLOK:  cpu time    0.0573: real time    0.0617
    SETDIJ:  cpu time    0.0055: real time    0.0056
     EDDAV:  cpu time    0.6603: real time    0.6635
       DOS:  cpu time    0.0004: real time    0.0004
    CHARGE:  cpu time    0.0897: real time    0.0900
    MIXING:  cpu time    0.0021: real time    0.0021
    --------------------------------------------
      LOOP:  cpu time    0.8154: real time    0.8233

 eigenvalue-minimisations  :   608
 total energy-change (2. order) : 0.2327650E-01  (-0.9374225E-03)
 number of electron      48.0000004 magnetization 
 augmentation part       -2.1508048 magnetization 

 Broyden mixing:
  rms(total) = 0.35478E+00    rms(broyden)= 0.35477E+00
  rms(prec ) = 0.66183E+00
  weight for this iteration     100.00

 eigenvalues of (default mixing * dielectric matrix)
  average eigenvalue GAMMA=   1.1312
  2.5420  2.5420  1.5746  1.5746  0.9183  0.5878  0.5878  0.1716  0.3092  0.5046

 Free energy of the ion-electron system (eV)
  ---------------------------------------------------
  alpha Z        PSCENC =         8.27008202
  Ewald energy   TEWEN  =      -386.82626598
  -Hartree energ DENC   =     -1306.43249446
  -exchange      EXHF   =         0.00000000
  -V(xc)+E(xc)   XCENC  =        93.49339537
  PAW double counting   =      1797.68422848    -1744.26473414
  entropy T*S    EENTRO =        -0.05638371
  eigenvalues    EBANDS =      -619.74690664
  atomic energy  EATOM  =      2084.69711942
  Solvation  Ediel_sol  =         0.00000000
  ---------------------------------------------------
  free energy    TOTEN  =       -73.18195963 eV

  energy without entropy =      -73.12557592  energy(sigma->0) =      -73.15376778


--------------------------------------------------------------------------------------------------------




--------------------------------------- Iteration      1(  16)  ---------------------------------------


    POTLOK:  cpu time    0.0553: real time    0.0555
    SETDIJ:  cpu time    0.0028: real time    0.0028
     EDDAV:  cpu time    0.5470: real time    0.5498
       DOS:  cpu time    0.0004: real time    0.0004
    CHARGE:  cpu time    0.0907: real time    0.0909
    MIXING:  cpu time    0.0022: real time    0.0022
    --------------------------------------------
      LOOP:  cpu time    0.6983: real time    0.7016

 eigenvalue-minimisations  :   472
 total energy-change (2. order) : 0.8929450E-01  (-0.1358494E-02)
 number of electron      48.0000004 magnetization 
 augmentation part       -2.1826864 magnetization 

 Broyden mixing:
  rms(total) = 0.12464E+00    rms(broyden)= 0.12455E+00
  rms(prec ) = 0.23347E+00
  weight for this iteration     100.00

 eigenvalues of (default mixing * dielectric matrix)
  average eigenvalue GAMMA=   1.2339
  3.8700  2.5020  1.9194  1.2966  0.9168  0.9168  0.6144  0.6144  0.1716  0.3092
  0.4423

 Free energy of the ion-electron system (eV)
  ---------------------------------------------------
  alpha Z        PSCENC =         8.27008202
  Ewald energy   TEWEN  =      -386.82626598
  -Hartree energ DENC   =     -1306.96823004
  -exchange      EXHF   =         0.00000000
  -V(xc)+E(xc)   XCENC  =        93.52231884
  PAW double counting   =      1797.12162190    -1743.70217217
  entropy T*S    EENTRO =        -0.07616273
  eigenvalues    EBANDS =      -619.13097639
  atomic energy  EATOM  =      2084.69711942
  Solvation  Ediel_sol  =         0.00000000
  ---------------------------------------------------
  free energy    TOTEN  =       -73.09266513 eV

  energy without entropy =      -73.01650241  energy(sigma->0) =      -73.05458377


--------------------------------------------------------------------------------------------------------




--------------------------------------- Iteration      1(  17)  ---------------------------------------


    POTLOK:  cpu time    0.0524: real time    0.0527
    SETDIJ:  cpu time    0.0028: real time    0.0028
     EDDAV:  cpu time    0.6230: real time    0.6262
       DOS:  cpu time    0.0004: real time    0.0004
    CHARGE:  cpu time    0.0850: real time    0.0895
    MIXING:  cpu time    0.0021: real time    0.0021
    --------------------------------------------
      LOOP:  cpu time    0.7657: real time    0.7737

 eigenvalue-minimisations  :   568
 total energy-change (2. order) :-0.1052208E+00  (-0.2461747E-01)
 number of electron      48.0000004 magnetization 
 augmentation part       -2.2650810 magnetization 

 Broyden mixing:
  rms(total) = 0.55603E+00    rms(broyden)= 0.55586E+00
  rms(prec ) = 0.99335E+00
  weight for this iteration     100.00

 eigenvalues of (default mixing * dielectric matrix)
  average eigenvalue GAMMA=   1.1605
  3.9709  2.2136  2.2136  1.0566  1.0566  0.8917  0.5582  0.5582  0.1716  0.5624
  0.3086  0.3641

 Free energy of the ion-electron system (eV)
  ---------------------------------------------------
  alpha Z        PSCENC =         8.27008202
  Ewald energy   TEWEN  =      -386.82626598
  -Hartree energ DENC   =     -1307.40875271
  -exchange      EXHF   =         0.00000000
  -V(xc)+E(xc)   XCENC  =        93.54750487
  PAW double counting   =      1794.57286217    -1741.15756682
  entropy T*S    EENTRO =        -0.00534303
  eigenvalues    EBANDS =      -618.88752590
  atomic energy  EATOM  =      2084.69711942
  Solvation  Ediel_sol  =         0.00000000
  ---------------------------------------------------
  free energy    TOTEN  =       -73.19788597 eV

  energy without entropy =      -73.19254294  energy(sigma->0) =      -73.19521445


--------------------------------------------------------------------------------------------------------




--------------------------------------- Iteration      1(  18)  ---------------------------------------


    POTLOK:  cpu time    0.0614: real time    0.0616
    SETDIJ:  cpu time    0.0029: real time    0.0029
     EDDAV:  cpu time    0.8410: real time    0.8451
       DOS:  cpu time    0.0004: real time    0.0004
    CHARGE:  cpu time    0.0902: real time    0.0904
    MIXING:  cpu time    0.0024: real time    0.0024
    --------------------------------------------
      LOOP:  cpu time    0.9982: real time    1.0028

 eigenvalue-minimisations  :   652
 total energy-change (2. order) : 0.4797697E-01  (-0.4289053E-03)
 number of electron      48.0000004 magnetization 
 augmentation part       -2.2644261 magnetization 

 Broyden mixing:
  rms(total) = 0.53630E+00    rms(broyden)= 0.53629E+00
  rms(prec ) = 0.95414E+00
  weight for this iteration     100.00

 eigenvalues of (default mixing * dielectric matrix)
  average eigenvalue GAMMA=   1.1475
  3.9779  2.2422  2.2422  1.1286  1.1286  0.8809  0.5624  0.5624  0.6387  0.6387
  0.1716  0.3091  0.4351

 Free energy of the ion-electron system (eV)
  ---------------------------------------------------
  alpha Z        PSCENC =         8.27008202
  Ewald energy   TEWEN  =      -386.82626598
  -Hartree energ DENC   =     -1307.55251550
  -exchange      EXHF   =         0.00000000
  -V(xc)+E(xc)   XCENC  =        93.55923568
  PAW double counting   =      1794.61951284    -1741.20031127
  entropy T*S    EENTRO =        -0.01239415
  eigenvalues    EBANDS =      -618.70437206
  atomic energy  EATOM  =      2084.69711942
  Solvation  Ediel_sol  =         0.00000000
  ---------------------------------------------------
  free energy    TOTEN  =       -73.14990900 eV

  energy without entropy =      -73.13751485  energy(sigma->0) =      -73.14371192


--------------------------------------------------------------------------------------------------------




--------------------------------------- Iteration      1(  19)  ---------------------------------------


    POTLOK:  cpu time    0.0523: real time    0.0525
    SETDIJ:  cpu time    0.0028: real time    0.0028
     EDDAV:  cpu time    0.5565: real time    0.5595
       DOS:  cpu time    0.0004: real time    0.0004
    CHARGE:  cpu time    0.0918: real time    0.0921
    MIXING:  cpu time    0.0022: real time    0.0022
    --------------------------------------------
      LOOP:  cpu time    0.7060: real time    0.7096

 eigenvalue-minimisations  :   480
 total energy-change (2. order) : 0.8668926E-01  (-0.1877188E-03)
 number of electron      48.0000004 magnetization 
 augmentation part       -2.1692054 magnetization 

 Broyden mixing:
  rms(total) = 0.24035E+00    rms(broyden)= 0.23990E+00
  rms(prec ) = 0.44636E+00
  weight for this iteration     100.00

 eigenvalues of (default mixing * dielectric matrix)
  average eigenvalue GAMMA=   1.1682
  3.9775  2.7134  2.1971  1.1036  1.1036  0.7451  0.7451  0.6529  0.6529  0.8050
  0.7558  0.1716  0.3091  0.4221

 Free energy of the ion-electron system (eV)
  ---------------------------------------------------
  alpha Z        PSCENC =         8.27008202
  Ewald energy   TEWEN  =      -386.82626598
  -Hartree energ DENC   =     -1307.77145389
  -exchange      EXHF   =         0.00000000
  -V(xc)+E(xc)   XCENC  =        93.53665462
  PAW double counting   =      1795.53649144    -1742.11425550
  entropy T*S    EENTRO =        -0.07060820
  eigenvalues    EBANDS =      -618.32098366
  atomic energy  EATOM  =      2084.69711942
  Solvation  Ediel_sol  =         0.00000000
  ---------------------------------------------------
  free energy    TOTEN  =       -73.06321974 eV

  energy without entropy =      -72.99261153  energy(sigma->0) =      -73.02791564


--------------------------------------------------------------------------------------------------------




--------------------------------------- Iteration      1(  20)  ---------------------------------------


    POTLOK:  cpu time    0.0530: real time    0.0551
    SETDIJ:  cpu time    0.0027: real time    0.0027
     EDDAV:  cpu time    0.6031: real time    0.6066
       DOS:  cpu time    0.0003: real time    0.0003
    CHARGE:  cpu time    0.0916: real time    0.0918
    MIXING:  cpu time    0.0024: real time    0.0024
    --------------------------------------------
      LOOP:  cpu time    0.7532: real time    0.7590

 eigenvalue-minimisations  :   544
 total energy-change (2. order) :-0.3244359E-01  (-0.5564928E-01)
 number of electron      48.0000004 magnetization 
 augmentation part       -2.2545142 magnetization 

 Broyden mixing:
  rms(total) = 0.42387E+00    rms(broyden)= 0.42375E+00
  rms(prec ) = 0.76304E+00
  weight for this iteration     100.00

 eigenvalues of (default mixing * dielectric matrix)
  average eigenvalue GAMMA=   1.2976
  4.7904  2.6225  2.6225  1.9793  1.0697  1.0697  1.0260  0.6327  0.6327  0.8332
  0.6397  0.6397  0.1716  0.3091  0.4263

 Free energy of the ion-electron system (eV)
  ---------------------------------------------------
  alpha Z        PSCENC =         8.27008202
  Ewald energy   TEWEN  =      -386.82626598
  -Hartree energ DENC   =     -1307.77102526
  -exchange      EXHF   =         0.00000000
  -V(xc)+E(xc)   XCENC  =        93.53432338
  PAW double counting   =      1795.25631717    -1741.83578067
  entropy T*S    EENTRO =        -0.03896441
  eigenvalues    EBANDS =      -618.38146900
  atomic energy  EATOM  =      2084.69711942
  Solvation  Ediel_sol  =         0.00000000
  ---------------------------------------------------
  free energy    TOTEN  =       -73.09566332 eV

  energy without entropy =      -73.05669891  energy(sigma->0) =      -73.07618112


--------------------------------------------------------------------------------------------------------




--------------------------------------- Iteration      1(  21)  ---------------------------------------


    POTLOK:  cpu time    0.0529: real time    0.0531
    SETDIJ:  cpu time    0.0029: real time    0.0029
     EDDAV:  cpu time    0.6141: real time    0.6180
       DOS:  cpu time    0.0004: real time    0.0004
    CHARGE:  cpu time    0.0881: real time    0.0918
    MIXING:  cpu time    0.0025: real time    0.0025
    --------------------------------------------
      LOOP:  cpu time    0.7608: real time    0.7687

 eigenvalue-minimisations  :   552
 total energy-change (2. order) : 0.3018215E-01  (-0.1459950E-03)
 number of electron      48.0000004 magnetization 
 augmentation part       -2.1918595 magnetization 

 Broyden mixing:
  rms(total) = 0.29549E+00    rms(broyden)= 0.29525E+00
  rms(prec ) = 0.46678E+00
  weight for this iteration     100.00

 eigenvalues of (default mixing * dielectric matrix)
  average eigenvalue GAMMA=   1.2258
  4.7263  2.6827  2.6827  1.9527  1.0215  1.0215  1.0994  0.6325  0.6325  0.7845
  0.6362  0.6362  0.1716  0.3091  0.4269  0.1962

 Free energy of the ion-electron system (eV)
  ---------------------------------------------------
  alpha Z        PSCENC =         8.27008202
  Ewald energy   TEWEN  =      -386.82626598
  -Hartree energ DENC   =     -1307.89635911
  -exchange      EXHF   =         0.00000000
  -V(xc)+E(xc)   XCENC  =        93.52533024
  PAW double counting   =      1796.12567648    -1742.69959380
  entropy T*S    EENTRO =        -0.08437156
  eigenvalues    EBANDS =      -618.17709888
  atomic energy  EATOM  =      2084.69711942
  Solvation  Ediel_sol  =         0.00000000
  ---------------------------------------------------
  free energy    TOTEN  =       -73.06548117 eV

  energy without entropy =      -72.98110961  energy(sigma->0) =      -73.02329539


--------------------------------------------------------------------------------------------------------




--------------------------------------- Iteration      1(  22)  ---------------------------------------


    POTLOK:  cpu time    0.0529: real time    0.0531
    SETDIJ:  cpu time    0.0028: real time    0.0028
     EDDAV:  cpu time    0.6244: real time    0.6278
       DOS:  cpu time    0.0004: real time    0.0004
    CHARGE:  cpu time    0.0883: real time    0.0911
    MIXING:  cpu time    0.0026: real time    0.0026
    --------------------------------------------
      LOOP:  cpu time    0.7714: real time    0.7778

 eigenvalue-minimisations  :   568
 total energy-change (2. order) :-0.6240754E-02  (-0.1183739E-01)
 number of electron      48.0000004 magnetization 
 augmentation part       -2.1700190 magnetization 

 Broyden mixing:
  rms(total) = 0.22830E+00    rms(broyden)= 0.22827E+00
  rms(prec ) = 0.43024E+00
  weight for this iteration     100.00

 eigenvalues of (default mixing * dielectric matrix)
  average eigenvalue GAMMA=   1.2494
  4.8905  3.1105  2.1725  1.7767  1.7767  0.9337  0.9337  1.0474  0.6422  0.6422
  0.1716  0.7774  0.3091  0.5280  0.5280  0.5752  0.4252

 Free energy of the ion-electron system (eV)
  ---------------------------------------------------
  alpha Z        PSCENC =         8.27008202
  Ewald energy   TEWEN  =      -386.82626598
  -Hartree energ DENC   =     -1307.95977940
  -exchange      EXHF   =         0.00000000
  -V(xc)+E(xc)   XCENC  =        93.52438070
  PAW double counting   =      1796.40043626    -1742.97512114
  entropy T*S    EENTRO =        -0.07103560
  eigenvalues    EBANDS =      -618.13153820
  atomic energy  EATOM  =      2084.69711942
  Solvation  Ediel_sol  =         0.00000000
  ---------------------------------------------------
  free energy    TOTEN  =       -73.07172192 eV

  energy without entropy =      -73.00068632  energy(sigma->0) =      -73.03620412


--------------------------------------------------------------------------------------------------------




--------------------------------------- Iteration      1(  23)  ---------------------------------------


    POTLOK:  cpu time    0.0526: real time    0.0528
    SETDIJ:  cpu time    0.0028: real time    0.0028
     EDDAV:  cpu time    0.9780: real time    0.9825
       DOS:  cpu time    0.0004: real time    0.0004
    CHARGE:  cpu time    0.1208: real time    0.1211
    MIXING:  cpu time    0.0027: real time    0.0027
    --------------------------------------------
      LOOP:  cpu time    1.1572: real time    1.1623

 eigenvalue-minimisations  :   600
 total energy-change (2. order) : 0.1105062E-01  (-0.7475170E-04)
 number of electron      48.0000004 magnetization 
 augmentation part       -2.1809288 magnetization 

 Broyden mixing:
  rms(total) = 0.17530E+00    rms(broyden)= 0.17529E+00
  rms(prec ) = 0.32373E+00
  weight for this iteration     100.00

 eigenvalues of (default mixing * dielectric matrix)
  average eigenvalue GAMMA=   1.2358
  4.7385  3.3605  2.1842  1.8934  1.8934  0.9475  0.9475  0.9699  0.9699  0.6374
  0.6374  0.1716  0.3091  0.4784  0.4784  0.6185  0.5802  0.4287

 Free energy of the ion-electron system (eV)
  ---------------------------------------------------
  alpha Z        PSCENC =         8.27008202
  Ewald energy   TEWEN  =      -386.82626598
  -Hartree energ DENC   =     -1307.92145094
  -exchange      EXHF   =         0.00000000
  -V(xc)+E(xc)   XCENC  =        93.52074407
  PAW double counting   =      1795.77768032    -1742.35362559
  entropy T*S    EENTRO =        -0.07967658
  eigenvalues    EBANDS =      -618.14527803
  atomic energy  EATOM  =      2084.69711942
  Solvation  Ediel_sol  =         0.00000000
  ---------------------------------------------------
  free energy    TOTEN  =       -73.06067130 eV

  energy without entropy =      -72.98099472  energy(sigma->0) =      -73.02083301


--------------------------------------------------------------------------------------------------------




--------------------------------------- Iteration      1(  24)  ---------------------------------------


    POTLOK:  cpu time    0.0530: real time    0.0532
    SETDIJ:  cpu time    0.0028: real time    0.0028
     EDDAV:  cpu time    0.8013: real time    0.8096
       DOS:  cpu time    0.0004: real time    0.0003
    CHARGE:  cpu time    0.0865: real time    0.0912
    MIXING:  cpu time    0.0029: real time    0.0029
    --------------------------------------------
      LOOP:  cpu time    0.9468: real time    0.9600

 eigenvalue-minimisations  :   536
 total energy-change (2. order) : 0.3664628E-02  (-0.1433850E-03)
 number of electron      48.0000004 magnetization 
 augmentation part       -2.1989902 magnetization 

 Broyden mixing:
  rms(total) = 0.12076E+00    rms(broyden)= 0.12074E+00
  rms(prec ) = 0.19137E+00
  weight for this iteration     100.00

 eigenvalues of (default mixing * dielectric matrix)
  average eigenvalue GAMMA=   1.3266
  4.9892  4.1441  2.3332  1.9552  1.9552  1.2752  1.2752  0.8787  0.8787  0.9329
  0.6291  0.6291  0.7762  0.1716  0.5674  0.5674  0.3091  0.5094  0.4277

 Free energy of the ion-electron system (eV)
  ---------------------------------------------------
  alpha Z        PSCENC =         8.27008202
  Ewald energy   TEWEN  =      -386.82626598
  -Hartree energ DENC   =     -1307.96882813
  -exchange      EXHF   =         0.00000000
  -V(xc)+E(xc)   XCENC  =        93.52803605
  PAW double counting   =      1795.59504140    -1742.17061201
  entropy T*S    EENTRO =        -0.08663059
  eigenvalues    EBANDS =      -618.09494885
  atomic energy  EATOM  =      2084.69711942
  Solvation  Ediel_sol  =         0.00000000
  ---------------------------------------------------
  free energy    TOTEN  =       -73.05700667 eV

  energy without entropy =      -72.97037608  energy(sigma->0) =      -73.01369138


--------------------------------------------------------------------------------------------------------




--------------------------------------- Iteration      1(  25)  ---------------------------------------


    POTLOK:  cpu time    0.0547: real time    0.0549
    SETDIJ:  cpu time    0.0050: real time    0.0050
     EDDAV:  cpu time    0.5906: real time    0.5938
       DOS:  cpu time    0.0004: real time    0.0004
    CHARGE:  cpu time    0.0883: real time    0.0911
    MIXING:  cpu time    0.0030: real time    0.0030
    --------------------------------------------
      LOOP:  cpu time    0.7418: real time    0.7482

 eigenvalue-minimisations  :   512
 total energy-change (2. order) :-0.4608211E-03  (-0.6713538E-04)
 number of electron      48.0000004 magnetization 
 augmentation part       -2.1929525 magnetization 

 Broyden mixing:
  rms(total) = 0.81936E-01    rms(broyden)= 0.81927E-01
  rms(prec ) = 0.15305E+00
  weight for this iteration     100.00

 eigenvalues of (default mixing * dielectric matrix)
  average eigenvalue GAMMA=   1.3286
  4.9824  4.7880  2.1888  2.1888  1.6151  1.6151  1.1058  1.1058  0.8941  0.8941
  0.6288  0.6288  0.8059  0.1716  0.5656  0.5656  0.3091  0.5454  0.5454  0.4274

 Free energy of the ion-electron system (eV)
  ---------------------------------------------------
  alpha Z        PSCENC =         8.27008202
  Ewald energy   TEWEN  =      -386.82626598
  -Hartree energ DENC   =     -1307.95406019
  -exchange      EXHF   =         0.00000000
  -V(xc)+E(xc)   XCENC  =        93.52671119
  PAW double counting   =      1795.28104522    -1741.85783364
  entropy T*S    EENTRO =        -0.08230437
  eigenvalues    EBANDS =      -618.11196116
  atomic energy  EATOM  =      2084.69711942
  Solvation  Ediel_sol  =         0.00000000
  ---------------------------------------------------
  free energy    TOTEN  =       -73.05746750 eV

  energy without entropy =      -72.97516312  energy(sigma->0) =      -73.01631531


--------------------------------------------------------------------------------------------------------




--------------------------------------- Iteration      1(  26)  ---------------------------------------


    POTLOK:  cpu time    0.0530: real time    0.0567
    SETDIJ:  cpu time    0.0029: real time    0.0029
     EDDAV:  cpu time    0.5903: real time    0.5935
       DOS:  cpu time    0.0004: real time    0.0004
    CHARGE:  cpu time    0.0906: real time    0.0909
    MIXING:  cpu time    0.0030: real time    0.0030
    --------------------------------------------
      LOOP:  cpu time    0.7401: real time    0.7474

 eigenvalue-minimisations  :   528
 total energy-change (2. order) :-0.1019726E-03  (-0.1794294E-02)
 number of electron      48.0000004 magnetization 
 augmentation part       -2.2152528 magnetization 

 Broyden mixing:
  rms(total) = 0.75416E-01    rms(broyden)= 0.75347E-01
  rms(prec ) = 0.13921E+00
  weight for this iteration     100.00

 eigenvalues of (default mixing * dielectric matrix)
  average eigenvalue GAMMA=   1.3548
  5.7908  4.2964  2.1385  2.1385  1.8774  1.8774  0.8892  0.8892  1.1052  1.1052
  0.9823  0.6278  0.6278  0.7839  0.7839  0.1716  0.5566  0.5566  0.3091  0.5149
  0.4276

 Free energy of the ion-electron system (eV)
  ---------------------------------------------------
  alpha Z        PSCENC =         8.27008202
  Ewald energy   TEWEN  =      -386.82626598
  -Hartree energ DENC   =     -1307.94693781
  -exchange      EXHF   =         0.00000000
  -V(xc)+E(xc)   XCENC  =        93.53009724
  PAW double counting   =      1794.98879326    -1741.56664803
  entropy T*S    EENTRO =        -0.08112236
  eigenvalues    EBANDS =      -618.12268722
  atomic energy  EATOM  =      2084.69711942
  Solvation  Ediel_sol  =         0.00000000
  ---------------------------------------------------
  free energy    TOTEN  =       -73.05756947 eV

  energy without entropy =      -72.97644711  energy(sigma->0) =      -73.01700829


--------------------------------------------------------------------------------------------------------




--------------------------------------- Iteration      1(  27)  ---------------------------------------


    POTLOK:  cpu time    0.0533: real time    0.0536
    SETDIJ:  cpu time    0.0028: real time    0.0028
     EDDAV:  cpu time    0.5631: real time    0.5664
       DOS:  cpu time    0.0004: real time    0.0004
    CHARGE:  cpu time    0.0901: real time    0.0903
    MIXING:  cpu time    0.0030: real time    0.0030
    --------------------------------------------
      LOOP:  cpu time    0.7126: real time    0.7164

 eigenvalue-minimisations  :   488
 total energy-change (2. order) : 0.6209748E-03  (-0.1452186E-04)
 number of electron      48.0000004 magnetization 
 augmentation part       -2.2022332 magnetization 

 Broyden mixing:
  rms(total) = 0.29241E-01    rms(broyden)= 0.29206E-01
  rms(prec ) = 0.50777E-01
  weight for this iteration     100.00

 eigenvalues of (default mixing * dielectric matrix)
  average eigenvalue GAMMA=   1.4116
  6.1922  4.7429  3.0307  2.1686  2.1686  1.4328  1.4328  0.9111  0.9111  1.1074
  1.1074  0.6285  0.6285  0.1716  0.6846  0.6846  0.6873  0.5597  0.5597  0.3091
  0.5094  0.4275

 Free energy of the ion-electron system (eV)
  ---------------------------------------------------
  alpha Z        PSCENC =         8.27008202
  Ewald energy   TEWEN  =      -386.82626598
  -Hartree energ DENC   =     -1307.95173127
  -exchange      EXHF   =         0.00000000
  -V(xc)+E(xc)   XCENC  =        93.52870822
  PAW double counting   =      1794.98740517    -1741.56528329
  entropy T*S    EENTRO =        -0.08412796
  eigenvalues    EBANDS =      -618.11285482
  atomic energy  EATOM  =      2084.69711942
  Solvation  Ediel_sol  =         0.00000000
  ---------------------------------------------------
[...]
  Local    -207.88411  -296.53835  -772.90359   -76.77686   -10.40548    18.02251
  n-local   183.82755   186.03327   311.93931    -1.30420     0.23772    -1.48722
  augment    31.88466    32.11178    80.41257     0.19669     0.12148    -0.22582
  Kinetic   754.80581   737.86753   705.27672     4.03311     0.41506     1.02648
  Fock        0.00000     0.00000     0.00000     0.00000     0.00000     0.00000
  -------------------------------------------------------------------------------------
  Total     123.00493    74.52034  5996.10167   -41.98872  -346.29572   599.80323
  in kB    1795.99786  1088.07324 87549.22389  -613.07829 -5056.27214  8757.74128
  external pressure =    28144.43 kB  Pullay stress =     2000.00 kB


 VOLUME and BASIS-vectors are now :
 -----------------------------------------------------------------------------
  energy-cutoff  :      420.00
  volume of cell :      109.73
      direct lattice vectors                 reciprocal lattice vectors
     5.216527953 -0.209473630 -0.027675774     0.196693904  0.124339363  0.000485332
    -2.789673293  4.412909027  0.027675861     0.009334104  0.232511599 -0.000485383
    -0.019005057  0.010973266  4.891018522     0.001060173 -0.000612096  0.204461885

  length of vectors
     5.220805401  5.220805409  4.891067755     0.232699387  0.232699387  0.204465550


 FORCES acting on ions
    electron-ion (+dipol)            ewald-force                    non-local-force                 convergence-correction
 -----------------------------------------------------------------------------------------------
   0.147E+02 -.846E+01 -.216E+03   -.135E+02 0.780E+01 0.708E+02   0.514E+00 -.297E+00 -.494E+02   -.381E-02 0.220E-02 -.113E-01
   -.252E+02 0.146E+02 0.635E+02   0.219E+02 -.126E+02 -.135E+03   0.546E+00 -.315E+00 0.396E+01   0.599E-02 -.346E-02 -.336E-01
   0.922E+01 -.533E+01 -.304E+03   -.104E+02 0.600E+01 0.604E+03   -.109E+01 0.630E+00 0.169E+03   -.221E-02 0.128E-02 0.137E-01
   0.129E+02 -.747E+01 0.231E+03   0.550E+05 -.317E+05 0.469E+06   -.337E+00 0.194E+00 -.443E+02   -.154E-02 0.890E-03 -.124E-01
   -.927E+01 0.535E+01 0.706E+02   0.914E+01 -.528E+01 -.391E+02   -.666E+00 0.385E+00 -.721E+01   0.135E-02 -.780E-03 0.761E-02
   -.417E+01 0.892E+01 -.975E+01   -.498E+00 -.961E+01 0.101E+02   0.144E+01 0.738E+00 -.442E-01   0.271E-02 -.121E-02 -.743E-03
   -.610E+01 -.148E+02 -.885E+01   0.923E+01 0.124E+02 0.885E+01   -.154E+01 0.485E+00 -.259E-01   -.109E-02 0.334E-02 -.678E-03
   0.992E+01 -.560E+01 -.873E+01   -.849E+01 0.983E+01 0.869E+01   -.336E+00 -.235E+01 -.128E+00   -.172E-02 -.122E-02 -.673E-03
   -.981E+01 -.848E+00 -.975E+01   0.807E+01 0.523E+01 0.101E+02   0.788E-01 -.161E+01 -.442E-01   0.240E-02 -.174E-02 -.743E-03
   0.979E+01 0.127E+02 -.885E+01   -.611E+01 -.142E+02 0.885E+01   -.119E+01 0.109E+01 -.259E-01   -.344E-02 -.720E-03 -.678E-03
   0.981E+01 -.580E+01 -.873E+01   -.128E+02 0.244E+01 0.869E+01   0.187E+01 0.147E+01 -.128E+00   0.196E-03 0.210E-02 -.673E-03
   0.298E+02 -.172E+02 0.229E+02   -.454E+02 0.262E+02 -.151E+02   0.373E+01 -.215E+01 -.220E+01   0.257E-02 -.148E-02 0.107E-02
   -.517E+01 0.355E+02 0.189E+02   0.573E+01 -.537E+02 -.110E+02   -.895E-01 0.435E+01 -.221E+01   0.504E-03 0.296E-02 0.103E-02
   -.333E+02 -.133E+02 0.189E+02   0.494E+02 0.219E+02 -.110E+02   -.381E+01 -.210E+01 -.221E+01   -.231E-02 -.192E-02 0.103E-02
   -.957E+00 0.553E+00 0.955E+01   -.982E+00 0.567E+00 -.928E+01   0.144E+01 -.829E+00 0.858E-02   0.583E-03 -.337E-03 0.483E-03
   0.604E+01 0.102E+02 0.849E+01   -.476E+01 -.158E+02 -.839E+01   0.278E+00 0.320E+01 -.135E+00   -.344E-03 0.615E-03 0.440E-03
   -.578E+01 -.103E+02 0.849E+01   0.113E+02 0.120E+02 -.839E+01   -.263E+01 -.184E+01 -.135E+00   -.705E-03 -.101E-04 0.440E-03
   0.341E+01 -.197E+01 0.510E+02   -.550E+05 0.318E+05 -.469E+06   0.676E-01 -.390E-01 -.403E+00   -.544E-03 0.314E-03 -.479E-02
   0.214E+01 -.124E+01 0.104E+03   -.205E+01 0.118E+01 -.313E+03   -.175E-01 0.101E-01 0.163E+02   -.282E-03 0.163E-03 -.918E-02
   -.710E+01 0.410E+01 -.978E+02   0.111E+02 -.642E+01 0.204E+03   -.775E+00 0.447E+00 -.213E+02   0.731E-03 -.422E-03 -.470E-02
   -.334E+01 0.193E+01 -.809E+01   0.481E+01 -.278E+01 -.595E+02   -.150E+00 0.867E-01 0.742E+01   0.640E-03 -.370E-03 0.221E-02
   0.150E+00 -.866E-01 -.468E+01   0.179E+00 -.103E+00 0.455E+01   -.244E+00 0.141E+00 0.213E+00   0.228E-03 -.132E-03 -.564E-03
   0.391E+01 -.226E+01 0.105E+02   -.953E+01 0.550E+01 -.110E+02   0.133E+01 -.769E+00 0.597E+00   0.648E-03 -.374E-03 0.649E-03
 -----------------------------------------------------------------------------------------------
   0.159E+01 -.920E+00 -.672E+02   -.619E-11 -.457E-12 -.818E-10   -.159E+01 0.920E+00 0.672E+02   0.556E-03 -.321E-03 -.521E-01
 
 
 POSITION                                       TOTAL-FORCE (eV/Angst)
 -----------------------------------------------------------------------------------
      2.54925      1.33048      0.00076         1.653730     -0.954809   -194.425926
     -0.16925      2.90000      3.90164        -2.819371      1.627755    -67.619473
      2.54371      1.33368      0.93713        -2.266256      1.308490    468.269088
      2.53764      1.33718      3.36164     54990.881424 -31748.935373 469285.917413
     -0.13677      2.88126      1.91374        -0.800787      0.462338     24.339074
      4.12485     -0.14117      0.00268        -3.228656      0.046174      0.271095
      2.95372      3.21759      0.02152         1.586924     -1.951122     -0.024679
      0.52728      0.81055      0.02191         1.094787      1.878088     -0.161904
      4.61153      0.70179      0.00268        -1.654316      2.773011      0.271095
      1.11720      0.03665      0.02152         2.483183     -0.398756     -0.024679
      1.98854      3.34152      0.02191        -1.079078     -1.887157     -0.161904
     -0.93826      3.34399      2.61433       -11.849607      6.841375      5.601476
     -0.11409      1.92848      2.58210         0.469311    -13.872749      5.755313
      0.69970      3.33800      2.58210        12.248810      6.529940      5.755313
      4.25791      0.34398      2.59105        -0.503773      0.290854      0.274946
     -2.51929      3.69951      2.63060         1.563480     -2.425691     -0.036702
      0.75301      0.12254      2.60293         2.882451     -0.141168     -0.036702
      2.53636      1.33792      3.35071    -54991.109292  31749.066921-469367.119339
      2.53147      1.34075      4.30365         0.070284     -0.040606   -192.181593
     -0.14040      2.88335      4.66836         3.250212     -1.876499     85.266545
     -0.11958      2.87133      1.08845         1.323328     -0.764032    -60.120870
      5.17334     -0.18454      4.85336         0.085063     -0.049111      0.078669
      5.09009     -0.13647      2.50730        -4.281851      2.472128      0.113744
 -----------------------------------------------------------------------------------
    total drift:                                0.000707     -0.000421      0.004733


--------------------------------------------------------------------------------------------------------



  FREE ENERGIE OF THE ION-ELECTRON SYSTEM (eV)
  ---------------------------------------------------
  free  energy   TOTEN  =      5357.87679138 eV

  energy  without entropy=     5357.88979948  energy(sigma->0) =     5357.88329543
  enthalpy is  TOTEN    =      5494.85348646 eV   P V=      136.97669508

 d Force = 0.2643133E+06[ 0.528E+06, 0.765E+03]  d Energy =-0.5079439E+04 0.269E+06
 d Force = 0.2642867E+06[ 0.528E+06, 0.941E+03]  d Ewald  =-0.4765099E+04 0.269E+06


--------------------------------------------------------------------------------------------------------


    POTLOK:  cpu time    0.1913: real time    0.1922


--------------------------------------------------------------------------------------------------------


 Conjugate gradient step on ions:
 trial-energy change: 5079.438674  1 .order************ -860.087260************
  (g-gl).g = 0.102E+04      g.g   = 0.879E+03  gl.gl    = 0.292E+04
 g(Force)  = 0.846E+03   g(Stress)= 0.331E+02 ortho     =-0.142E+03
 gamma     =   0.34982
 trial     =   1.03674
 opt step  =   4.14694  (harmonic =   4.14694) maximal distance =3.51196286
 next E    =*************   (d E  =**********)


--------------------------------------------------------------------------------------------------------


    WAVPRE:  cpu time    0.0269: real time    0.0284
    FEWALD:  cpu time    0.0005: real time    0.0005
    GENKIN:  cpu time    0.0134: real time    0.0135
    ORTHCH:  cpu time    0.0305: real time    0.0306
     LOOP+:  cpu time   21.8419: real time   22.0358


--------------------------------------- Iteration      6(   1)  ---------------------------------------


    POTLOK:  cpu time    0.0515: real time    0.0542
    SETDIJ:  cpu time    1.1599: real time    1.1761
     EDDAV:  cpu time    0.6386: real time    0.6422
       DOS:  cpu time    0.0003: real time    0.0003
    CHARGE:  cpu time    1.6039: real time    1.6202
    MIXING:  cpu time    0.0048: real time    0.0048
    --------------------------------------------
      LOOP:  cpu time    3.4591: real time    3.4979

 eigenvalue-minimisations  :   576
 total energy-change (2. order) :-0.1411418E+04  (-0.2745329E+04)
 number of electron      48.0000002 magnetization 
 augmentation part       16.5494777 magnetization 

 Broyden mixing:
  rms(total) = 0.88109E+03    rms(broyden)= 0.88109E+03
  rms(prec ) = 0.88158E+03
  weight for this iteration     100.00

 Free energy of the ion-electron system (eV)
  ---------------------------------------------------
  alpha Z        PSCENC =      1240.58391966
  Ewald energy   TEWEN  =      1383.55469263
  -Hartree energ DENC   =     -2227.12900408
  -exchange      EXHF   =         0.00000000
  -V(xc)+E(xc)   XCENC  =       284.07995986
  PAW double counting   =     12526.78007280   -12483.79426044
  entropy T*S    EENTRO =        -0.00705237
  eigenvalues    EBANDS =      1137.69367137
  atomic energy  EATOM  =      2084.69711942
  Solvation  Ediel_sol  =         0.00000000
  ---------------------------------------------------
  free energy    TOTEN  =      3946.45911884 eV

  energy without entropy =     3946.46617121  energy(sigma->0) =     3946.46264502


--------------------------------------------------------------------------------------------------------




--------------------------------------- Iteration      6(   2)  ---------------------------------------


    POTLOK:  cpu time    0.0526: real time    0.0528
    SETDIJ:  cpu time    1.1597: real time    1.1659
     EDDAV:  cpu time    0.6794: real time    0.6829
       DOS:  cpu time    0.0002: real time    0.0002
    CHARGE:  cpu time    1.5860: real time    1.6022
    MIXING:  cpu time    0.0035: real time    0.0035
    --------------------------------------------
      LOOP:  cpu time    3.4814: real time    3.5075

 eigenvalue-minimisations  :   532
 total energy-change (2. order) : 0.4163491E+03  (-0.4281078E+03)
 number of electron      48.0000002 magnetization 
 augmentation part       12.4770270 magnetization 

 Broyden mixing:
  rms(total) = 0.17089E+04    rms(broyden)= 0.17089E+04
  rms(prec ) = 0.17090E+04
  weight for this iteration     100.00

 eigenvalues of (default mixing * dielectric matrix)
  average eigenvalue GAMMA=   0.9483
  0.9483

 Free energy of the ion-electron system (eV)
  ---------------------------------------------------
  alpha Z        PSCENC =      1240.58391966
  Ewald energy   TEWEN  =      1383.55469263
  -Hartree energ DENC   =     -1996.22662568
  -exchange      EXHF   =         0.00000000
  -V(xc)+E(xc)   XCENC  =       252.09182391
  PAW double counting   =  16907593.63052626-16907656.26327459
  entropy T*S    EENTRO =        -0.00000000
  eigenvalues    EBANDS =      1460.74008018
  atomic energy  EATOM  =      2084.69711942
  Solvation  Ediel_sol  =         0.00000000
  ---------------------------------------------------
  free energy    TOTEN  =      4362.80826179 eV

  energy without entropy =     4362.80826179  energy(sigma->0) =     4362.80826179


--------------------------------------------------------------------------------------------------------




--------------------------------------- Iteration      6(   3)  ---------------------------------------


    POTLOK:  cpu time    0.0530: real time    0.0532
    SETDIJ:  cpu time    1.1549: real time    1.1671
     EDDAV:  cpu time    0.8001: real time    0.8041
       DOS:  cpu time    0.0004: real time    0.0004
    CHARGE:  cpu time    1.6447: real time    1.6655
    MIXING:  cpu time    0.0056: real time    0.0056
    --------------------------------------------
      LOOP:  cpu time    3.6586: real time    3.6959

 eigenvalue-minimisations  :   780
 total energy-change (2. order) :-0.6839794E+04  (-0.5515043E+04)
 number of electron      48.0000000 magnetization 
 augmentation part        4.9938054 magnetization 

 Broyden mixing:
  rms(total) = 0.93040E+04    rms(broyden)= 0.93040E+04
  rms(prec ) = 0.93041E+04
  weight for this iteration     100.00

 eigenvalues of (default mixing * dielectric matrix)
  average eigenvalue GAMMA=   0.6597
  1.1204  0.1990

 Free energy of the ion-electron system (eV)
  ---------------------------------------------------
  alpha Z        PSCENC =      1240.58391966
  Ewald energy   TEWEN  =      1383.55469263
  -Hartree energ DENC   =     -2163.43874934
  -exchange      EXHF   =         0.00000000
  -V(xc)+E(xc)   XCENC  =       269.20325697
  PAW double counting   =   5904983.90280506 -5905016.94093879
  entropy T*S    EENTRO =        -0.00834940
  eigenvalues    EBANDS =     -5258.53974239
  atomic energy  EATOM  =      2084.69711942
  Solvation  Ediel_sol  =         0.00000000
  ---------------------------------------------------
  free energy    TOTEN  =     -2476.98598618 eV

  energy without entropy =    -2476.97763678  energy(sigma->0) =    -2476.98181148


--------------------------------------------------------------------------------------------------------




--------------------------------------- Iteration      6(   4)  ---------------------------------------


    POTLOK:  cpu time    0.1006: real time    0.1009
    SETDIJ:  cpu time    1.1922: real time    1.1984
     EDDAV:  cpu time    0.7974: real time    0.8008
       DOS:  cpu time    0.0003: real time    0.0003
    CHARGE:  cpu time    1.5870: real time    1.6005
    MIXING:  cpu time    0.0033: real time    0.0033
    --------------------------------------------
      LOOP:  cpu time    3.6809: real time    3.7043

 eigenvalue-minimisations  :   468
 total energy-change (2. order) : 0.7219906E+04  (-0.3077069E+04)
 number of electron      48.0000002 magnetization 
 augmentation part       13.9176724 magnetization 

 Broyden mixing:
  rms(total) = 0.12931E+03    rms(broyden)= 0.12931E+03
  rms(prec ) = 0.12958E+03
  weight for this iteration     100.00

 eigenvalues of (default mixing * dielectric matrix)
  average eigenvalue GAMMA=   0.6507
  1.3312  0.4007  0.2202

 Free energy of the ion-electron system (eV)
  ---------------------------------------------------
  alpha Z        PSCENC =      1240.58391966
  Ewald energy   TEWEN  =      1383.55469263
  -Hartree energ DENC   =     -1927.53745220
  -exchange      EXHF   =         0.00000000
  -V(xc)+E(xc)   XCENC  =       240.77691050
  PAW double counting   =  28919979.64100499-28920083.04878652
  entropy T*S    EENTRO =        -0.00181820
  eigenvalues    EBANDS =      1824.25471199
  atomic energy  EATOM  =      2084.69711942
  Solvation  Ediel_sol  =         0.00000000
  ---------------------------------------------------
  free energy    TOTEN  =      4742.92030227 eV

  energy without entropy =     4742.92212047  energy(sigma->0) =     4742.92121137


--------------------------------------------------------------------------------------------------------




--------------------------------------- Iteration      6(   5)  ---------------------------------------


    POTLOK:  cpu time    0.0545: real time    0.0548
    SETDIJ:  cpu time    1.1536: real time    1.1647
     EDDAV:  cpu time    0.6065: real time    0.6099
       DOS:  cpu time    0.0003: real time    0.0003
    CHARGE:  cpu time    1.5835: real time    1.6012
    MIXING:  cpu time    0.0041: real time    0.0041
    --------------------------------------------
      LOOP:  cpu time    3.4026: real time    3.4350

 eigenvalue-minimisations  :   552
 total energy-change (2. order) : 0.1795234E+03  (-0.2356223E+03)
 number of electron      48.0000002 magnetization 
 augmentation part       13.8346969 magnetization 

 Broyden mixing:
  rms(total) = 0.50426E+03    rms(broyden)= 0.50426E+03
  rms(prec ) = 0.50429E+03
  weight for this iteration     100.00

 eigenvalues of (default mixing * dielectric matrix)
  average eigenvalue GAMMA=   0.7098
  1.1841  0.7240  0.7240  0.2071

 Free energy of the ion-electron system (eV)
  ---------------------------------------------------
  alpha Z        PSCENC =      1240.58391966
  Ewald energy   TEWEN  =      1383.55469263
  -Hartree energ DENC   =     -1996.90733237
  -exchange      EXHF   =         0.00000000
  -V(xc)+E(xc)   XCENC  =       240.17773170
  PAW double counting   =  32731039.57593860-32731159.90848291
  entropy T*S    EENTRO =        -0.00721129
  eigenvalues    EBANDS =      2090.67734018
  atomic energy  EATOM  =      2084.69711942
  Solvation  Ediel_sol  =         0.00000000
  ---------------------------------------------------
  free energy    TOTEN  =      4922.44371562 eV

  energy without entropy =     4922.45092691  energy(sigma->0) =     4922.44732126


--------------------------------------------------------------------------------------------------------




--------------------------------------- Iteration      6(   6)  ---------------------------------------


    POTLOK:  cpu time    0.0523: real time    0.0525
    SETDIJ:  cpu time    1.1507: real time    1.1647
     EDDAV:  cpu time    0.7671: real time    0.7711
       DOS:  cpu time    0.0002: real time    0.0002
    CHARGE:  cpu time    1.5793: real time    1.5973
    MIXING:  cpu time    0.0061: real time    0.0061
    --------------------------------------------
      LOOP:  cpu time    3.5557: real time    3.5920

 eigenvalue-minimisations  :   732
 total energy-change (2. order) :-0.2017582E+09  (-0.9297843E+08)
 number of electron      47.9999851 magnetization 
 augmentation part    -2119.6415259 magnetization 

 Broyden mixing:
  rms(total) = 0.23587E+06    rms(broyden)= 0.23587E+06
  rms(prec ) = 0.23588E+06
  weight for this iteration     100.00

 eigenvalues of (default mixing * dielectric matrix)
  average eigenvalue GAMMA=   0.5725
  1.1882  0.7337  0.7337  0.2072  0.0000

 Free energy of the ion-electron system (eV)
  ---------------------------------------------------
  alpha Z        PSCENC =      1240.58391966
  Ewald energy   TEWEN  =      1383.55469263
  -Hartree energ DENC   =     -1941.34953768
  -exchange      EXHF   =         0.00000000
  -V(xc)+E(xc)   XCENC  =       238.48832518
  PAW double counting   =  30623022.64836903-30623175.08613302
  entropy T*S    EENTRO =        -0.00000000
  eigenvalues    EBANDS = ******************
  atomic energy  EATOM  =      2084.69711942
  Solvation  Ediel_sol  =         0.00000000
  ---------------------------------------------------
  free energy    TOTEN  = ****************** eV

  energy without entropy =******************  energy(sigma->0) =******************


--------------------------------------------------------------------------------------------------------




--------------------------------------- Iteration      6(   7)  ---------------------------------------


    POTLOK:  cpu time    0.0509: real time    0.0708
    SETDIJ:  cpu time    1.1715: real time    1.1763
Error EDDDAV: Call to ZHEGV failed. Returncode =   9 2  16
