
     Program PWSCF v.6.8 starts on 21Jul2022 at 14: 0:28 

     This program is part of the open-source Quantum ESPRESSO suite
     for quantum simulation of materials; please cite
         "P. Giannozzi et al., J. Phys.:Condens. Matter 21 395502 (2009);
         "P. Giannozzi et al., J. Phys.:Condens. Matter 29 465901 (2017);
         "P. Giannozzi et al., J. Chem. Phys. 152 154105 (2020);
          URL http://www.quantum-espresso.org", 
     in publications or presentations arising from this work. More details at
     http://www.quantum-espresso.org/quote

     Parallel version (MPI), running on    48 processors

     MPI processes distributed on     1 nodes
     K-points division:     npool     =       4
     R & G space division:  proc/nbgrp/npool/nimage =      12
     189022 MiB available memory on the printing compute node when the environment starts
 
     Waiting for input...
     Reading input from standard input

     Current dimensions of program PWSCF are:
     Max number of different atomic species (ntypx) = 10
     Max number of k-points (npk) =  40000
     Max angular momentum in pseudopotentials (lmaxx) =  4
     Message from routine setup:
     using ibrav=0 with symmetry is DISCOURAGED, use correct ibrav instead

     Subspace diagonalization in iterative solution of the eigenvalue problem:
     a serial algorithm will be used

 
     Parallelization info
     --------------------
     sticks:   dense  smooth     PW     G-vecs:    dense   smooth      PW
     Min         147      49     18                 3945      764     165
     Max         148      50     19                 3948      766     167
     Sum        1775     599    217                47369     9189    1985
 
     Using Slab Decomposition
 


     bravais-lattice index     =            0
     lattice parameter (alat)  =       5.7296  a.u.
     unit-cell volume          =     144.7914 (a.u.)^3
     number of atoms/cell      =            7
     number of atomic types    =            2
     number of electrons       =        16.00
     number of Kohn-Sham states=           12
     kinetic-energy cutoff     =      60.0000  Ry
     charge density cutoff     =     720.0000  Ry
     scf convergence threshold =      1.0E-08
     mixing beta               =       0.7000
     number of iterations used =            8  plain     mixing
     energy convergence thresh.=      1.0E-07
     force convergence thresh. =      1.0E-05
     press convergence thresh. =      1.0E-02
     Exchange-correlation= SLA  PW   PBE  PBE
                           (   1   4   3   4   0   0   0)
     nstep                     =         2000


     celldm(1)=   5.729564  celldm(2)=   0.000000  celldm(3)=   0.000000
     celldm(4)=   0.000000  celldm(5)=   0.000000  celldm(6)=   0.000000

     crystal axes: (cart. coord. in units of alat)
               a(1) = (  -0.577350   0.577350   0.577350 )  
               a(2) = (   0.577350  -0.577350   0.577350 )  
               a(3) = (   0.577350   0.577350  -0.577350 )  

     reciprocal axes: (cart. coord. in units 2 pi/alat)
               b(1) = (  0.000000  0.866025  0.866025 )  
               b(2) = (  0.866025  0.000000  0.866025 )  
               b(3) = (  0.866025  0.866025  0.000000 )  


     PseudoPot. # 1 for Ca read from file:
     /work/home/mayuan/code/my_script/scripts_tests/out2/200.0/pp/ca_pbe_v1.uspp.F.UPF
     MD5 check sum: 403a4c14b9e4d4dfdc3024c9a3812218
     Pseudo is Ultrasoft + core correction, Zval = 10.0
     Generated by new atomic code, or converted to UPF format
     Using radial grid of  845 points,  6 beta functions with: 
                l(1) =   0
                l(2) =   0
                l(3) =   1
                l(4) =   1
                l(5) =   2
                l(6) =   2
     Q(r) pseudized with  8 coefficients,  rinner =    1.500   1.500   1.500
                                                       1.500   1.500

     PseudoPot. # 2 for H  read from file:
     /work/home/mayuan/code/my_script/scripts_tests/out2/200.0/pp/h_pbe_v1.uspp.F.UPF
     MD5 check sum: 3408e3ff4ec8b0a4e358431e7e038a48
     Pseudo is Ultrasoft, Zval =  1.0
     Generated by new atomic code, or converted to UPF format
     Using radial grid of  615 points,  2 beta functions with: 
                l(1) =   0
                l(2) =   0
     Q(r) pseudized with  8 coefficients,  rinner =    0.700

     atomic species   valence    mass     pseudopotential
        Ca            10.00    40.07800     Ca( 1.00)
        H              1.00     1.00794     H ( 1.00)

     48 Sym. Ops., with inversion, found


                                    s                        frac. trans.

      isym =  1     identity                                     

 cryst.   s( 1) = (     1          0          0      )
                  (     0          1          0      )
                  (     0          0          1      )

 cart.    s( 1) = (  1.0000000  0.0000000  0.0000000 )
                  (  0.0000000  1.0000000  0.0000000 )
                  (  0.0000000  0.0000000  1.0000000 )


      isym =  2     180 deg rotation - cart. axis [0,0,1]        

 cryst.   s( 2) = (     0          1          0      )
                  (     1          0          0      )
                  (    -1         -1         -1      )

 cart.    s( 2) = ( -1.0000000  0.0000000  0.0000000 )
                  (  0.0000000 -1.0000000  0.0000000 )
                  (  0.0000000  0.0000000  1.0000000 )


      isym =  3     180 deg rotation - cart. axis [0,1,0]        

 cryst.   s( 3) = (     0          0          1      )
                  (    -1         -1         -1      )
                  (     1          0          0      )

 cart.    s( 3) = ( -1.0000000  0.0000000  0.0000000 )
                  (  0.0000000  1.0000000  0.0000000 )
                  (  0.0000000  0.0000000 -1.0000000 )


      isym =  4     180 deg rotation - cart. axis [1,0,0]        

 cryst.   s( 4) = (    -1         -1         -1      )
                  (     0          0          1      )
                  (     0          1          0      )

 cart.    s( 4) = (  1.0000000  0.0000000  0.0000000 )
                  (  0.0000000 -1.0000000  0.0000000 )
                  (  0.0000000  0.0000000 -1.0000000 )


      isym =  5     180 deg rotation - cart. axis [1,1,0]        

 cryst.   s( 5) = (    -1          0          0      )
                  (     0         -1          0      )
                  (     1          1          1      )

 cart.    s( 5) = (  0.0000000  1.0000000  0.0000000 )
                  (  1.0000000  0.0000000  0.0000000 )
                  (  0.0000000  0.0000000 -1.0000000 )


      isym =  6     180 deg rotation - cart. axis [1,-1,0]       

 cryst.   s( 6) = (     0         -1          0      )
                  (    -1          0          0      )
                  (     0          0         -1      )

 cart.    s( 6) = (  0.0000000 -1.0000000  0.0000000 )
                  ( -1.0000000  0.0000000  0.0000000 )
                  (  0.0000000  0.0000000 -1.0000000 )


      isym =  7      90 deg rotation - cart. axis [0,0,-1]       

 cryst.   s( 7) = (     1          1          1      )
                  (     0          0         -1      )
                  (    -1          0          0      )

 cart.    s( 7) = (  0.0000000  1.0000000  0.0000000 )
                  ( -1.0000000  0.0000000  0.0000000 )
                  (  0.0000000  0.0000000  1.0000000 )


      isym =  8      90 deg rotation - cart. axis [0,0,1]        

 cryst.   s( 8) = (     0          0         -1      )
                  (     1          1          1      )
                  (     0         -1          0      )

 cart.    s( 8) = (  0.0000000 -1.0000000  0.0000000 )
                  (  1.0000000  0.0000000  0.0000000 )
                  (  0.0000000  0.0000000  1.0000000 )


      isym =  9     180 deg rotation - cart. axis [1,0,1]        

 cryst.   s( 9) = (    -1          0          0      )
                  (     1          1          1      )
                  (     0          0         -1      )

 cart.    s( 9) = (  0.0000000  0.0000000  1.0000000 )
                  (  0.0000000 -1.0000000  0.0000000 )
                  (  1.0000000  0.0000000  0.0000000 )


      isym = 10     180 deg rotation - cart. axis [-1,0,1]       

 cryst.   s(10) = (     0          0         -1      )
                  (     0         -1          0      )
                  (    -1          0          0      )

 cart.    s(10) = (  0.0000000  0.0000000 -1.0000000 )
                  (  0.0000000 -1.0000000  0.0000000 )
                  ( -1.0000000  0.0000000  0.0000000 )


      isym = 11      90 deg rotation - cart. axis [0,1,0]        

 cryst.   s(11) = (     1          1          1      )
                  (    -1          0          0      )
                  (     0         -1          0      )

 cart.    s(11) = (  0.0000000  0.0000000  1.0000000 )
                  (  0.0000000  1.0000000  0.0000000 )
                  ( -1.0000000  0.0000000  0.0000000 )


      isym = 12      90 deg rotation - cart. axis [0,-1,0]       

 cryst.   s(12) = (     0         -1          0      )
                  (     0          0         -1      )
                  (     1          1          1      )

 cart.    s(12) = (  0.0000000  0.0000000 -1.0000000 )
                  (  0.0000000  1.0000000  0.0000000 )
                  (  1.0000000  0.0000000  0.0000000 )


      isym = 13     180 deg rotation - cart. axis [0,1,1]        

 cryst.   s(13) = (     1          1          1      )
                  (     0         -1          0      )
                  (     0          0         -1      )

 cart.    s(13) = ( -1.0000000  0.0000000  0.0000000 )
                  (  0.0000000  0.0000000  1.0000000 )
                  (  0.0000000  1.0000000  0.0000000 )


      isym = 14     180 deg rotation - cart. axis [0,1,-1]       

 cryst.   s(14) = (    -1          0          0      )
                  (     0          0         -1      )
                  (     0         -1          0      )

 cart.    s(14) = ( -1.0000000  0.0000000  0.0000000 )
                  (  0.0000000  0.0000000 -1.0000000 )
                  (  0.0000000 -1.0000000  0.0000000 )


      isym = 15      90 deg rotation - cart. axis [-1,0,0]       

 cryst.   s(15) = (     0         -1          0      )
                  (     1          1          1      )
                  (    -1          0          0      )

 cart.    s(15) = (  1.0000000  0.0000000  0.0000000 )
                  (  0.0000000  0.0000000  1.0000000 )
                  (  0.0000000 -1.0000000  0.0000000 )


      isym = 16      90 deg rotation - cart. axis [1,0,0]        

 cryst.   s(16) = (     0          0         -1      )
                  (    -1          0          0      )
                  (     1          1          1      )

 cart.    s(16) = (  1.0000000  0.0000000  0.0000000 )
                  (  0.0000000  0.0000000 -1.0000000 )
                  (  0.0000000  1.0000000  0.0000000 )


      isym = 17     120 deg rotation - cart. axis [-1,-1,-1]     

 cryst.   s(17) = (     0          0          1      )
                  (     1          0          0      )
                  (     0          1          0      )

 cart.    s(17) = (  0.0000000  1.0000000  0.0000000 )
                  (  0.0000000  0.0000000  1.0000000 )
                  (  1.0000000  0.0000000  0.0000000 )


      isym = 18     120 deg rotation - cart. axis [-1,1,1]       

 cryst.   s(18) = (     1          0          0      )
                  (     0          0          1      )
                  (    -1         -1         -1      )

 cart.    s(18) = (  0.0000000 -1.0000000  0.0000000 )
                  (  0.0000000  0.0000000  1.0000000 )
                  ( -1.0000000  0.0000000  0.0000000 )


      isym = 19     120 deg rotation - cart. axis [1,1,-1]       

 cryst.   s(19) = (     0          1          0      )
                  (    -1         -1         -1      )
                  (     0          0          1      )

 cart.    s(19) = (  0.0000000  1.0000000  0.0000000 )
                  (  0.0000000  0.0000000 -1.0000000 )
                  ( -1.0000000  0.0000000  0.0000000 )


      isym = 20     120 deg rotation - cart. axis [1,-1,1]       

 cryst.   s(20) = (    -1         -1         -1      )
                  (     0          1          0      )
                  (     1          0          0      )

 cart.    s(20) = (  0.0000000 -1.0000000  0.0000000 )
                  (  0.0000000  0.0000000 -1.0000000 )
                  (  1.0000000  0.0000000  0.0000000 )


      isym = 21     120 deg rotation - cart. axis [1,1,1]        

 cryst.   s(21) = (     0          1          0      )
                  (     0          0          1      )
                  (     1          0          0      )

 cart.    s(21) = (  0.0000000  0.0000000  1.0000000 )
                  (  1.0000000  0.0000000  0.0000000 )
                  (  0.0000000  1.0000000  0.0000000 )


      isym = 22     120 deg rotation - cart. axis [-1,1,-1]      

 cryst.   s(22) = (     0          0          1      )
                  (     0          1          0      )
                  (    -1         -1         -1      )

 cart.    s(22) = (  0.0000000  0.0000000  1.0000000 )
                  ( -1.0000000  0.0000000  0.0000000 )
                  (  0.0000000 -1.0000000  0.0000000 )


      isym = 23     120 deg rotation - cart. axis [1,-1,-1]      

 cryst.   s(23) = (     1          0          0      )
                  (    -1         -1         -1      )
                  (     0          1          0      )

 cart.    s(23) = (  0.0000000  0.0000000 -1.0000000 )
                  ( -1.0000000  0.0000000  0.0000000 )
                  (  0.0000000  1.0000000  0.0000000 )


      isym = 24     120 deg rotation - cart. axis [-1,-1,1]      

 cryst.   s(24) = (    -1         -1         -1      )
                  (     1          0          0      )
                  (     0          0          1      )

 cart.    s(24) = (  0.0000000  0.0000000 -1.0000000 )
                  (  1.0000000  0.0000000  0.0000000 )
                  (  0.0000000 -1.0000000  0.0000000 )


      isym = 25     inversion                                    

 cryst.   s(25) = (    -1          0          0      )
                  (     0         -1          0      )
                  (     0          0         -1      )

 cart.    s(25) = ( -1.0000000  0.0000000  0.0000000 )
                  (  0.0000000 -1.0000000  0.0000000 )
                  (  0.0000000  0.0000000 -1.0000000 )


      isym = 26     inv. 180 deg rotation - cart. axis [0,0,1]   

 cryst.   s(26) = (     0         -1          0      )
                  (    -1          0          0      )
                  (     1          1          1      )

 cart.    s(26) = (  1.0000000  0.0000000  0.0000000 )
                  (  0.0000000  1.0000000  0.0000000 )
                  (  0.0000000  0.0000000 -1.0000000 )


      isym = 27     inv. 180 deg rotation - cart. axis [0,1,0]   

 cryst.   s(27) = (     0          0         -1      )
                  (     1          1          1      )
                  (    -1          0          0      )

 cart.    s(27) = (  1.0000000  0.0000000  0.0000000 )
                  (  0.0000000 -1.0000000  0.0000000 )
                  (  0.0000000  0.0000000  1.0000000 )


      isym = 28     inv. 180 deg rotation - cart. axis [1,0,0]   

 cryst.   s(28) = (     1          1          1      )
                  (     0          0         -1      )
                  (     0         -1          0      )

 cart.    s(28) = ( -1.0000000  0.0000000  0.0000000 )
                  (  0.0000000  1.0000000  0.0000000 )
                  (  0.0000000  0.0000000  1.0000000 )


      isym = 29     inv. 180 deg rotation - cart. axis [1,1,0]   

 cryst.   s(29) = (     1          0          0      )
                  (     0          1          0      )
                  (    -1         -1         -1      )

 cart.    s(29) = (  0.0000000 -1.0000000  0.0000000 )
                  ( -1.0000000  0.0000000  0.0000000 )
                  (  0.0000000  0.0000000  1.0000000 )


      isym = 30     inv. 180 deg rotation - cart. axis [1,-1,0]  

 cryst.   s(30) = (     0          1          0      )
                  (     1          0          0      )
                  (     0          0          1      )

 cart.    s(30) = (  0.0000000  1.0000000  0.0000000 )
                  (  1.0000000  0.0000000  0.0000000 )
                  (  0.0000000  0.0000000  1.0000000 )


      isym = 31     inv.  90 deg rotation - cart. axis [0,0,-1]  

 cryst.   s(31) = (    -1         -1         -1      )
                  (     0          0          1      )
                  (     1          0          0      )

 cart.    s(31) = (  0.0000000 -1.0000000  0.0000000 )
                  (  1.0000000  0.0000000  0.0000000 )
                  (  0.0000000  0.0000000 -1.0000000 )


      isym = 32     inv.  90 deg rotation - cart. axis [0,0,1]   

 cryst.   s(32) = (     0          0          1      )
                  (    -1         -1         -1      )
                  (     0          1          0      )

 cart.    s(32) = (  0.0000000  1.0000000  0.0000000 )
                  ( -1.0000000  0.0000000  0.0000000 )
                  (  0.0000000  0.0000000 -1.0000000 )


      isym = 33     inv. 180 deg rotation - cart. axis [1,0,1]   

 cryst.   s(33) = (     1          0          0      )
                  (    -1         -1         -1      )
                  (     0          0          1      )

 cart.    s(33) = (  0.0000000  0.0000000 -1.0000000 )
                  (  0.0000000  1.0000000  0.0000000 )
                  ( -1.0000000  0.0000000  0.0000000 )


      isym = 34     inv. 180 deg rotation - cart. axis [-1,0,1]  

 cryst.   s(34) = (     0          0          1      )
                  (     0          1          0      )
                  (     1          0          0      )

 cart.    s(34) = (  0.0000000  0.0000000  1.0000000 )
                  (  0.0000000  1.0000000  0.0000000 )
                  (  1.0000000  0.0000000  0.0000000 )


      isym = 35     inv.  90 deg rotation - cart. axis [0,1,0]   

 cryst.   s(35) = (    -1         -1         -1      )
                  (     1          0          0      )
                  (     0          1          0      )

 cart.    s(35) = (  0.0000000  0.0000000 -1.0000000 )
                  (  0.0000000 -1.0000000  0.0000000 )
                  (  1.0000000  0.0000000  0.0000000 )


      isym = 36     inv.  90 deg rotation - cart. axis [0,-1,0]  

 cryst.   s(36) = (     0          1          0      )
                  (     0          0          1      )
                  (    -1         -1         -1      )

 cart.    s(36) = (  0.0000000  0.0000000  1.0000000 )
                  (  0.0000000 -1.0000000  0.0000000 )
                  ( -1.0000000  0.0000000  0.0000000 )


      isym = 37     inv. 180 deg rotation - cart. axis [0,1,1]   

 cryst.   s(37) = (    -1         -1         -1      )
                  (     0          1          0      )
                  (     0          0          1      )

 cart.    s(37) = (  1.0000000  0.0000000  0.0000000 )
                  (  0.0000000  0.0000000 -1.0000000 )
                  (  0.0000000 -1.0000000  0.0000000 )


      isym = 38     inv. 180 deg rotation - cart. axis [0,1,-1]  

 cryst.   s(38) = (     1          0          0      )
                  (     0          0          1      )
                  (     0          1          0      )

 cart.    s(38) = (  1.0000000  0.0000000  0.0000000 )
                  (  0.0000000  0.0000000  1.0000000 )
                  (  0.0000000  1.0000000  0.0000000 )


      isym = 39     inv.  90 deg rotation - cart. axis [-1,0,0]  

 cryst.   s(39) = (     0          1          0      )
                  (    -1         -1         -1      )
                  (     1          0          0      )

 cart.    s(39) = ( -1.0000000  0.0000000  0.0000000 )
                  (  0.0000000  0.0000000 -1.0000000 )
                  (  0.0000000  1.0000000  0.0000000 )


      isym = 40     inv.  90 deg rotation - cart. axis [1,0,0]   

 cryst.   s(40) = (     0          0          1      )
                  (     1          0          0      )
                  (    -1         -1         -1      )

 cart.    s(40) = ( -1.0000000  0.0000000  0.0000000 )
                  (  0.0000000  0.0000000  1.0000000 )
                  (  0.0000000 -1.0000000  0.0000000 )


      isym = 41     inv. 120 deg rotation - cart. axis [-1,-1,-1]

 cryst.   s(41) = (     0          0         -1      )
                  (    -1          0          0      )
                  (     0         -1          0      )

 cart.    s(41) = (  0.0000000 -1.0000000  0.0000000 )
                  (  0.0000000  0.0000000 -1.0000000 )
                  ( -1.0000000  0.0000000  0.0000000 )


      isym = 42     inv. 120 deg rotation - cart. axis [-1,1,1]  

 cryst.   s(42) = (    -1          0          0      )
                  (     0          0         -1      )
                  (     1          1          1      )

 cart.    s(42) = (  0.0000000  1.0000000  0.0000000 )
                  (  0.0000000  0.0000000 -1.0000000 )
                  (  1.0000000  0.0000000  0.0000000 )


      isym = 43     inv. 120 deg rotation - cart. axis [1,1,-1]  

 cryst.   s(43) = (     0         -1          0      )
                  (     1          1          1      )
                  (     0          0         -1      )

 cart.    s(43) = (  0.0000000 -1.0000000  0.0000000 )
                  (  0.0000000  0.0000000  1.0000000 )
                  (  1.0000000  0.0000000  0.0000000 )


      isym = 44     inv. 120 deg rotation - cart. axis [1,-1,1]  

 cryst.   s(44) = (     1          1          1      )
                  (     0         -1          0      )
                  (    -1          0          0      )

 cart.    s(44) = (  0.0000000  1.0000000  0.0000000 )
                  (  0.0000000  0.0000000  1.0000000 )
                  ( -1.0000000  0.0000000  0.0000000 )


      isym = 45     inv. 120 deg rotation - cart. axis [1,1,1]   

 cryst.   s(45) = (     0         -1          0      )
                  (     0          0         -1      )
                  (    -1          0          0      )

 cart.    s(45) = (  0.0000000  0.0000000 -1.0000000 )
                  ( -1.0000000  0.0000000  0.0000000 )
                  (  0.0000000 -1.0000000  0.0000000 )


      isym = 46     inv. 120 deg rotation - cart. axis [-1,1,-1] 

 cryst.   s(46) = (     0          0         -1      )
                  (     0         -1          0      )
                  (     1          1          1      )

 cart.    s(46) = (  0.0000000  0.0000000 -1.0000000 )
                  (  1.0000000  0.0000000  0.0000000 )
                  (  0.0000000  1.0000000  0.0000000 )


      isym = 47     inv. 120 deg rotation - cart. axis [1,-1,-1] 

 cryst.   s(47) = (    -1          0          0      )
                  (     1          1          1      )
                  (     0         -1          0      )

 cart.    s(47) = (  0.0000000  0.0000000  1.0000000 )
                  (  1.0000000  0.0000000  0.0000000 )
                  (  0.0000000 -1.0000000  0.0000000 )


      isym = 48     inv. 120 deg rotation - cart. axis [-1,-1,1] 

 cryst.   s(48) = (     1          1          1      )
                  (    -1          0          0      )
                  (     0          0         -1      )

 cart.    s(48) = (  0.0000000  0.0000000  1.0000000 )
                  ( -1.0000000  0.0000000  0.0000000 )
                  (  0.0000000  1.0000000  0.0000000 )


   Cartesian axes

     site n.     atom                  positions (alat units)
         1           Ca  tau(   1) = (   0.0000000   0.0000000   0.0000000  )
         2           H   tau(   2) = (   0.2886751   0.0000000   0.5773503  )
         3           H   tau(   3) = (   0.2886751   0.5773503   0.0000000  )
         4           H   tau(   4) = (   0.5773503   0.2886751   0.0000000  )
         5           H   tau(   5) = (   0.0000000   0.2886751   0.5773503  )
         6           H   tau(   6) = (  -0.0000000   0.5773503   0.2886751  )
         7           H   tau(   7) = (   0.5773503  -0.0000000   0.2886751  )

   Crystallographic axes

     site n.     atom                  positions (cryst. coord.)
         1           Ca  tau(   1) = (  0.0000000  0.0000000  0.0000000  )
         2           H   tau(   2) = (  0.5000000  0.7500000  0.2500000  )
         3           H   tau(   3) = (  0.5000000  0.2500000  0.7500000  )
         4           H   tau(   4) = (  0.2500000  0.5000000  0.7500000  )
         5           H   tau(   5) = (  0.7500000  0.5000000  0.2500000  )
         6           H   tau(   6) = (  0.7500000  0.2500000  0.5000000  )
         7           H   tau(   7) = (  0.2500000  0.7500000  0.5000000  )

     number of k points=   897  Gaussian smearing, width (Ry)=  0.0050
                       cart. coord. in units 2pi/alat
        k(    1) = (   0.0000000   0.0000000   0.0000000), wk =   0.0000610
        k(    2) = (   0.0270633   0.0270633   0.0000000), wk =   0.0007324
        k(    3) = (   0.0541266   0.0541266   0.0000000), wk =   0.0007324
        k(    4) = (   0.0811899   0.0811899   0.0000000), wk =   0.0007324
        k(    5) = (   0.1082532   0.1082532   0.0000000), wk =   0.0007324
        k(    6) = (   0.1353165   0.1353165   0.0000000), wk =   0.0007324
        k(    7) = (   0.1623798   0.1623798   0.0000000), wk =   0.0007324
        k(    8) = (   0.1894431   0.1894431   0.0000000), wk =   0.0007324
        k(    9) = (   0.2165064   0.2165064   0.0000000), wk =   0.0007324
        k(   10) = (   0.2435696   0.2435696   0.0000000), wk =   0.0007324
        k(   11) = (   0.2706329   0.2706329   0.0000000), wk =   0.0007324
        k(   12) = (   0.2976962   0.2976962   0.0000000), wk =   0.0007324
        k(   13) = (   0.3247595   0.3247595   0.0000000), wk =   0.0007324
        k(   14) = (   0.3518228   0.3518228   0.0000000), wk =   0.0007324
        k(   15) = (   0.3788861   0.3788861   0.0000000), wk =   0.0007324
        k(   16) = (   0.4059494   0.4059494   0.0000000), wk =   0.0007324
        k(   17) = (  -0.4330127  -0.4330127   0.0000000), wk =   0.0003662
        k(   18) = (   0.0541266   0.0270633   0.0270633), wk =   0.0014648
        k(   19) = (   0.0811899   0.0541266   0.0270633), wk =   0.0029297
        k(   20) = (   0.1082532   0.0811899   0.0270633), wk =   0.0029297
        k(   21) = (   0.1353165   0.1082532   0.0270633), wk =   0.0029297
        k(   22) = (   0.1623798   0.1353165   0.0270633), wk =   0.0029297
        k(   23) = (   0.1894431   0.1623798   0.0270633), wk =   0.0029297
        k(   24) = (   0.2165064   0.1894431   0.0270633), wk =   0.0029297
        k(   25) = (   0.2435696   0.2165064   0.0270633), wk =   0.0029297
        k(   26) = (   0.2706329   0.2435696   0.0270633), wk =   0.0029297
        k(   27) = (   0.2976962   0.2706329   0.0270633), wk =   0.0029297
        k(   28) = (   0.3247595   0.2976962   0.0270633), wk =   0.0029297
        k(   29) = (   0.3518228   0.3247595   0.0270633), wk =   0.0029297
        k(   30) = (   0.3788861   0.3518228   0.0270633), wk =   0.0029297
        k(   31) = (   0.4059494   0.3788861   0.0270633), wk =   0.0029297
        k(   32) = (   0.4330127   0.4059494   0.0270633), wk =   0.0029297
        k(   33) = (   0.1082532   0.0541266   0.0541266), wk =   0.0014648
        k(   34) = (   0.1353165   0.0811899   0.0541266), wk =   0.0029297
        k(   35) = (   0.1623798   0.1082532   0.0541266), wk =   0.0029297
        k(   36) = (   0.1894431   0.1353165   0.0541266), wk =   0.0029297
        k(   37) = (   0.2165064   0.1623798   0.0541266), wk =   0.0029297
        k(   38) = (   0.2435696   0.1894431   0.0541266), wk =   0.0029297
        k(   39) = (   0.2706329   0.2165064   0.0541266), wk =   0.0029297
        k(   40) = (   0.2976962   0.2435696   0.0541266), wk =   0.0029297
        k(   41) = (   0.3247595   0.2706329   0.0541266), wk =   0.0029297
        k(   42) = (   0.3518228   0.2976962   0.0541266), wk =   0.0029297
        k(   43) = (   0.3788861   0.3247595   0.0541266), wk =   0.0029297
        k(   44) = (   0.4059494   0.3518228   0.0541266), wk =   0.0029297
        k(   45) = (   0.4330127   0.3788861   0.0541266), wk =   0.0029297
        k(   46) = (   0.4600760   0.4059494   0.0541266), wk =   0.0014648
        k(   47) = (   0.1623798   0.0811899   0.0811899), wk =   0.0014648
        k(   48) = (   0.1894431   0.1082532   0.0811899), wk =   0.0029297
        k(   49) = (   0.2165064   0.1353165   0.0811899), wk =   0.0029297
        k(   50) = (   0.2435696   0.1623798   0.0811899), wk =   0.0029297
        k(   51) = (   0.2706329   0.1894431   0.0811899), wk =   0.0029297
        k(   52) = (   0.2976962   0.2165064   0.0811899), wk =   0.0029297
        k(   53) = (   0.3247595   0.2435696   0.0811899), wk =   0.0029297
        k(   54) = (   0.3518228   0.2706329   0.0811899), wk =   0.0029297
        k(   55) = (   0.3788861   0.2976962   0.0811899), wk =   0.0029297
        k(   56) = (   0.4059494   0.3247595   0.0811899), wk =   0.0029297
        k(   57) = (   0.4330127   0.3518228   0.0811899), wk =   0.0029297
        k(   58) = (   0.4600760   0.3788861   0.0811899), wk =   0.0029297
        k(   59) = (   0.2165064   0.1082532   0.1082532), wk =   0.0014648
        k(   60) = (   0.2435696   0.1353165   0.1082532), wk =   0.0029297
        k(   61) = (   0.2706329   0.1623798   0.1082532), wk =   0.0029297
        k(   62) = (   0.2976962   0.1894431   0.1082532), wk =   0.0029297
        k(   63) = (   0.3247595   0.2165064   0.1082532), wk =   0.0029297
        k(   64) = (   0.3518228   0.2435696   0.1082532), wk =   0.0029297
        k(   65) = (   0.3788861   0.2706329   0.1082532), wk =   0.0029297
        k(   66) = (   0.4059494   0.2976962   0.1082532), wk =   0.0029297
        k(   67) = (   0.4330127   0.3247595   0.1082532), wk =   0.0029297
        k(   68) = (   0.4600760   0.3518228   0.1082532), wk =   0.0029297
        k(   69) = (   0.4871393   0.3788861   0.1082532), wk =   0.0014648
        k(   70) = (   0.2706329   0.1353165   0.1353165), wk =   0.0014648
        k(   71) = (   0.2976962   0.1623798   0.1353165), wk =   0.0029297
        k(   72) = (   0.3247595   0.1894431   0.1353165), wk =   0.0029297
        k(   73) = (   0.3518228   0.2165064   0.1353165), wk =   0.0029297
        k(   74) = (   0.3788861   0.2435696   0.1353165), wk =   0.0029297
        k(   75) = (   0.4059494   0.2706329   0.1353165), wk =   0.0029297
        k(   76) = (   0.4330127   0.2976962   0.1353165), wk =   0.0029297
        k(   77) = (   0.4600760   0.3247595   0.1353165), wk =   0.0029297
        k(   78) = (   0.4871393   0.3518228   0.1353165), wk =   0.0029297
        k(   79) = (   0.3247595   0.1623798   0.1623798), wk =   0.0014648
        k(   80) = (   0.3518228   0.1894431   0.1623798), wk =   0.0029297
        k(   81) = (   0.3788861   0.2165064   0.1623798), wk =   0.0029297
        k(   82) = (   0.4059494   0.2435696   0.1623798), wk =   0.0029297
        k(   83) = (   0.4330127   0.2706329   0.1623798), wk =   0.0029297
        k(   84) = (   0.4600760   0.2976962   0.1623798), wk =   0.0029297
        k(   85) = (   0.4871393   0.3247595   0.1623798), wk =   0.0029297
        k(   86) = (   0.5142026   0.3518228   0.1623798), wk =   0.0014648
        k(   87) = (   0.3788861   0.1894431   0.1894431), wk =   0.0014648
        k(   88) = (   0.4059494   0.2165064   0.1894431), wk =   0.0029297
        k(   89) = (   0.4330127   0.2435696   0.1894431), wk =   0.0029297
        k(   90) = (   0.4600760   0.2706329   0.1894431), wk =   0.0029297
        k(   91) = (   0.4871393   0.2976962   0.1894431), wk =   0.0029297
        k(   92) = (   0.5142026   0.3247595   0.1894431), wk =   0.0029297
        k(   93) = (   0.4330127   0.2165064   0.2165064), wk =   0.0014648
        k(   94) = (   0.4600760   0.2435696   0.2165064), wk =   0.0029297
        k(   95) = (   0.4871393   0.2706329   0.2165064), wk =   0.0029297
        k(   96) = (   0.5142026   0.2976962   0.2165064), wk =   0.0029297
        k(   97) = (   0.5412659   0.3247595   0.2165064), wk =   0.0014648
        k(   98) = (   0.4871393   0.2435696   0.2435696), wk =   0.0014648
        k(   99) = (   0.5142026   0.2706329   0.2435696), wk =   0.0029297
        k(  100) = (   0.5412659   0.2976962   0.2435696), wk =   0.0029297
        k(  101) = (   0.5412659   0.2706329   0.2706329), wk =   0.0014648
        k(  102) = (   0.5683292   0.2976962   0.2706329), wk =   0.0014648
        k(  103) = (   0.0541266   0.0541266   0.0541266), wk =   0.0004883
        k(  104) = (   0.0811899   0.0811899   0.0541266), wk =   0.0014648
        k(  105) = (   0.1082532   0.1082532   0.0541266), wk =   0.0014648
        k(  106) = (   0.1353165   0.1353165   0.0541266), wk =   0.0014648
        k(  107) = (   0.1623798   0.1623798   0.0541266), wk =   0.0014648
        k(  108) = (   0.1894431   0.1894431   0.0541266), wk =   0.0014648
        k(  109) = (   0.2165064   0.2165064   0.0541266), wk =   0.0014648
        k(  110) = (   0.2435696   0.2435696   0.0541266), wk =   0.0014648
        k(  111) = (   0.2706329   0.2706329   0.0541266), wk =   0.0014648
        k(  112) = (   0.2976962   0.2976962   0.0541266), wk =   0.0014648
        k(  113) = (   0.3247595   0.3247595   0.0541266), wk =   0.0014648
        k(  114) = (   0.3518228   0.3518228   0.0541266), wk =   0.0014648
        k(  115) = (   0.3788861   0.3788861   0.0541266), wk =   0.0014648
        k(  116) = (   0.4059494   0.4059494   0.0541266), wk =   0.0014648
        k(  117) = (   0.4330127   0.4330127   0.0541266), wk =   0.0007324
        k(  118) = (   0.0000000   0.0000000   0.0541266), wk =   0.0003662
        k(  119) = (   0.1082532   0.0811899   0.0811899), wk =   0.0014648
        k(  120) = (   0.1353165   0.1082532   0.0811899), wk =   0.0029297
        k(  121) = (   0.1623798   0.1353165   0.0811899), wk =   0.0029297
        k(  122) = (   0.1894431   0.1623798   0.0811899), wk =   0.0029297
        k(  123) = (   0.2165064   0.1894431   0.0811899), wk =   0.0029297
        k(  124) = (   0.2435696   0.2165064   0.0811899), wk =   0.0029297
        k(  125) = (   0.2706329   0.2435696   0.0811899), wk =   0.0029297
        k(  126) = (   0.2976962   0.2706329   0.0811899), wk =   0.0029297
        k(  127) = (   0.3247595   0.2976962   0.0811899), wk =   0.0029297
        k(  128) = (   0.3518228   0.3247595   0.0811899), wk =   0.0029297
        k(  129) = (   0.3788861   0.3518228   0.0811899), wk =   0.0029297
        k(  130) = (   0.4059494   0.3788861   0.0811899), wk =   0.0029297
        k(  131) = (   0.4330127   0.4059494   0.0811899), wk =   0.0029297
        k(  132) = (   0.0000000  -0.0270633   0.0811899), wk =   0.0014648
        k(  133) = (   0.1623798   0.1082532   0.1082532), wk =   0.0014648
        k(  134) = (   0.1894431   0.1353165   0.1082532), wk =   0.0029297
        k(  135) = (   0.2165064   0.1623798   0.1082532), wk =   0.0029297
        k(  136) = (   0.2435696   0.1894431   0.1082532), wk =   0.0029297
        k(  137) = (   0.2706329   0.2165064   0.1082532), wk =   0.0029297
        k(  138) = (   0.2976962   0.2435696   0.1082532), wk =   0.0029297
        k(  139) = (   0.3247595   0.2706329   0.1082532), wk =   0.0029297
        k(  140) = (   0.3518228   0.2976962   0.1082532), wk =   0.0029297
        k(  141) = (   0.3788861   0.3247595   0.1082532), wk =   0.0029297
        k(  142) = (   0.4059494   0.3518228   0.1082532), wk =   0.0029297
        k(  143) = (   0.4330127   0.3788861   0.1082532), wk =   0.0029297
        k(  144) = (   0.4600760   0.4059494   0.1082532), wk =   0.0014648
        k(  145) = (   0.0000000  -0.0541266   0.1082532), wk =   0.0014648
        k(  146) = (   0.0270633  -0.0270633   0.1082532), wk =   0.0014648
        k(  147) = (   0.2165064   0.1353165   0.1353165), wk =   0.0014648
        k(  148) = (   0.2435696   0.1623798   0.1353165), wk =   0.0029297
        k(  149) = (   0.2706329   0.1894431   0.1353165), wk =   0.0029297
        k(  150) = (   0.2976962   0.2165064   0.1353165), wk =   0.0029297
        k(  151) = (   0.3247595   0.2435696   0.1353165), wk =   0.0029297
        k(  152) = (   0.3518228   0.2706329   0.1353165), wk =   0.0029297
        k(  153) = (   0.3788861   0.2976962   0.1353165), wk =   0.0029297
        k(  154) = (   0.4059494   0.3247595   0.1353165), wk =   0.0029297
        k(  155) = (   0.4330127   0.3518228   0.1353165), wk =   0.0029297
        k(  156) = (   0.4600760   0.3788861   0.1353165), wk =   0.0029297
        k(  157) = (   0.0000000  -0.0811899   0.1353165), wk =   0.0014648
        k(  158) = (   0.0270633  -0.0541266   0.1353165), wk =   0.0029297
        k(  159) = (   0.2706329   0.1623798   0.1623798), wk =   0.0014648
        k(  160) = (   0.2976962   0.1894431   0.1623798), wk =   0.0029297
        k(  161) = (   0.3247595   0.2165064   0.1623798), wk =   0.0029297
        k(  162) = (   0.3518228   0.2435696   0.1623798), wk =   0.0029297
        k(  163) = (   0.3788861   0.2706329   0.1623798), wk =   0.0029297
        k(  164) = (   0.4059494   0.2976962   0.1623798), wk =   0.0029297
        k(  165) = (   0.4330127   0.3247595   0.1623798), wk =   0.0029297
        k(  166) = (   0.4600760   0.3518228   0.1623798), wk =   0.0029297
        k(  167) = (   0.4871393   0.3788861   0.1623798), wk =   0.0014648
        k(  168) = (   0.0000000  -0.1082532   0.1623798), wk =   0.0014648
        k(  169) = (   0.0270633  -0.0811899   0.1623798), wk =   0.0029297
        k(  170) = (   0.0541266  -0.0541266   0.1623798), wk =   0.0014648
        k(  171) = (   0.3247595   0.1894431   0.1894431), wk =   0.0014648
        k(  172) = (   0.3518228   0.2165064   0.1894431), wk =   0.0029297
        k(  173) = (   0.3788861   0.2435696   0.1894431), wk =   0.0029297
        k(  174) = (   0.4059494   0.2706329   0.1894431), wk =   0.0029297
        k(  175) = (   0.4330127   0.2976962   0.1894431), wk =   0.0029297
        k(  176) = (   0.4600760   0.3247595   0.1894431), wk =   0.0029297
        k(  177) = (   0.4871393   0.3518228   0.1894431), wk =   0.0029297
        k(  178) = (   0.0000000  -0.1353165   0.1894431), wk =   0.0014648
        k(  179) = (   0.0270633  -0.1082532   0.1894431), wk =   0.0029297
        k(  180) = (   0.0541266  -0.0811899   0.1894431), wk =   0.0029297
        k(  181) = (   0.3788861   0.2165064   0.2165064), wk =   0.0014648
        k(  182) = (   0.4059494   0.2435696   0.2165064), wk =   0.0029297
        k(  183) = (   0.4330127   0.2706329   0.2165064), wk =   0.0029297
        k(  184) = (   0.4600760   0.2976962   0.2165064), wk =   0.0029297
        k(  185) = (   0.4871393   0.3247595   0.2165064), wk =   0.0029297
        k(  186) = (   0.5142026   0.3518228   0.2165064), wk =   0.0014648
        k(  187) = (   0.0000000  -0.1623798   0.2165064), wk =   0.0014648
        k(  188) = (   0.0270633  -0.1353165   0.2165064), wk =   0.0029297
        k(  189) = (   0.0541266  -0.1082532   0.2165064), wk =   0.0029297
        k(  190) = (   0.0811899  -0.0811899   0.2165064), wk =   0.0014648
        k(  191) = (   0.4330127   0.2435696   0.2435696), wk =   0.0014648
        k(  192) = (   0.4600760   0.2706329   0.2435696), wk =   0.0029297
        k(  193) = (   0.4871393   0.2976962   0.2435696), wk =   0.0029297
        k(  194) = (   0.5142026   0.3247595   0.2435696), wk =   0.0029297
        k(  195) = (   0.0000000  -0.1894431   0.2435696), wk =   0.0014648
        k(  196) = (   0.0270633  -0.1623798   0.2435696), wk =   0.0029297
        k(  197) = (   0.0541266  -0.1353165   0.2435696), wk =   0.0029297
        k(  198) = (   0.0811899  -0.1082532   0.2435696), wk =   0.0029297
        k(  199) = (   0.4871393   0.2706329   0.2706329), wk =   0.0014648
        k(  200) = (   0.5142026   0.2976962   0.2706329), wk =   0.0029297
        k(  201) = (   0.5412659   0.3247595   0.2706329), wk =   0.0014648
        k(  202) = (   0.0000000  -0.2165064   0.2706329), wk =   0.0014648
        k(  203) = (   0.0270633  -0.1894431   0.2706329), wk =   0.0029297
        k(  204) = (   0.0541266  -0.1623798   0.2706329), wk =   0.0029297
        k(  205) = (   0.0811899  -0.1353165   0.2706329), wk =   0.0029297
        k(  206) = (   0.1082532  -0.1082532   0.2706329), wk =   0.0014648
        k(  207) = (   0.5412659   0.2976962   0.2976962), wk =   0.0014648
        k(  208) = (   0.0000000  -0.2435696   0.2976962), wk =   0.0014648
        k(  209) = (   0.0270633  -0.2165064   0.2976962), wk =   0.0029297
        k(  210) = (   0.0541266  -0.1894431   0.2976962), wk =   0.0029297
        k(  211) = (   0.0811899  -0.1623798   0.2976962), wk =   0.0029297
        k(  212) = (   0.1082532  -0.1353165   0.2976962), wk =   0.0029297
        k(  213) = (   0.0000000  -0.2706329   0.3247595), wk =   0.0014648
        k(  214) = (   0.0270633  -0.2435696   0.3247595), wk =   0.0029297
        k(  215) = (   0.0541266  -0.2165064   0.3247595), wk =   0.0029297
        k(  216) = (   0.0811899  -0.1894431   0.3247595), wk =   0.0029297
        k(  217) = (   0.1082532  -0.1623798   0.3247595), wk =   0.0029297
        k(  218) = (   0.1353165  -0.1353165   0.3247595), wk =   0.0014648
        k(  219) = (   0.0000000  -0.2976962   0.3518228), wk =   0.0014648
        k(  220) = (   0.0270633  -0.2706329   0.3518228), wk =   0.0029297
        k(  221) = (   0.0541266  -0.2435696   0.3518228), wk =   0.0029297
        k(  222) = (   0.0811899  -0.2165064   0.3518228), wk =   0.0029297
        k(  223) = (   0.1082532  -0.1894431   0.3518228), wk =   0.0029297
        k(  224) = (   0.1353165  -0.1623798   0.3518228), wk =   0.0029297
        k(  225) = (   0.0000000  -0.3247595   0.3788861), wk =   0.0014648
        k(  226) = (   0.0270633  -0.2976962   0.3788861), wk =   0.0029297
        k(  227) = (   0.0541266  -0.2706329   0.3788861), wk =   0.0029297
        k(  228) = (   0.0811899  -0.2435696   0.3788861), wk =   0.0029297
        k(  229) = (   0.1082532  -0.2165064   0.3788861), wk =   0.0029297
        k(  230) = (   0.1353165  -0.1894431   0.3788861), wk =   0.0029297
        k(  231) = (   0.1623798  -0.1623798   0.3788861), wk =   0.0014648
        k(  232) = (   0.0000000  -0.3518228   0.4059494), wk =   0.0014648
        k(  233) = (   0.0270633  -0.3247595   0.4059494), wk =   0.0029297
        k(  234) = (   0.0541266  -0.2976962   0.4059494), wk =   0.0029297
        k(  235) = (   0.0811899  -0.2706329   0.4059494), wk =   0.0029297
        k(  236) = (   0.1082532  -0.2435696   0.4059494), wk =   0.0029297
        k(  237) = (   0.1353165  -0.2165064   0.4059494), wk =   0.0029297
        k(  238) = (   0.1623798  -0.1894431   0.4059494), wk =   0.0029297
        k(  239) = (   0.0000000  -0.3788861   0.4330127), wk =   0.0014648
        k(  240) = (   0.0270633  -0.3518228   0.4330127), wk =   0.0029297
        k(  241) = (   0.0541266  -0.3247595   0.4330127), wk =   0.0029297
        k(  242) = (   0.0811899  -0.2976962   0.4330127), wk =   0.0029297
        k(  243) = (   0.1082532  -0.2706329   0.4330127), wk =   0.0029297
        k(  244) = (   0.1353165  -0.2435696   0.4330127), wk =   0.0029297
        k(  245) = (   0.1623798  -0.2165064   0.4330127), wk =   0.0029297
        k(  246) = (   0.1894431  -0.1894431   0.4330127), wk =   0.0014648
        k(  247) = (  -0.8660254  -0.4059494  -0.4059494), wk =   0.0007324
        k(  248) = (  -0.8389621  -0.3788861  -0.4059494), wk =   0.0029297
        k(  249) = (  -0.8118988  -0.3518228  -0.4059494), wk =   0.0029297
        k(  250) = (  -0.7848355  -0.3247595  -0.4059494), wk =   0.0029297
        k(  251) = (  -0.7577722  -0.2976962  -0.4059494), wk =   0.0029297
        k(  252) = (  -0.7307089  -0.2706329  -0.4059494), wk =   0.0029297
        k(  253) = (  -0.7036456  -0.2435696  -0.4059494), wk =   0.0029297
        k(  254) = (  -0.6765823  -0.2165064  -0.4059494), wk =   0.0029297
        k(  255) = (  -0.8118988  -0.3788861  -0.3788861), wk =   0.0014648
        k(  256) = (  -0.7848355  -0.3518228  -0.3788861), wk =   0.0029297
        k(  257) = (  -0.7577722  -0.3247595  -0.3788861), wk =   0.0029297
        k(  258) = (  -0.7307089  -0.2976962  -0.3788861), wk =   0.0029297
        k(  259) = (  -0.7036456  -0.2706329  -0.3788861), wk =   0.0029297
        k(  260) = (  -0.6765823  -0.2435696  -0.3788861), wk =   0.0029297
        k(  261) = (  -0.6495191  -0.2165064  -0.3788861), wk =   0.0014648
        k(  262) = (  -0.7577722  -0.3518228  -0.3518228), wk =   0.0014648
        k(  263) = (  -0.7307089  -0.3247595  -0.3518228), wk =   0.0029297
        k(  264) = (  -0.7036456  -0.2976962  -0.3518228), wk =   0.0029297
        k(  265) = (  -0.6765823  -0.2706329  -0.3518228), wk =   0.0029297
        k(  266) = (  -0.6495191  -0.2435696  -0.3518228), wk =   0.0029297
        k(  267) = (  -0.7036456  -0.3247595  -0.3247595), wk =   0.0014648
        k(  268) = (  -0.6765823  -0.2976962  -0.3247595), wk =   0.0029297
        k(  269) = (  -0.6495191  -0.2706329  -0.3247595), wk =   0.0029297
        k(  270) = (  -0.6224558  -0.2435696  -0.3247595), wk =   0.0014648
        k(  271) = (  -0.6495191  -0.2976962  -0.2976962), wk =   0.0014648
        k(  272) = (  -0.6224558  -0.2706329  -0.2976962), wk =   0.0029297
        k(  273) = (  -0.5953925  -0.2706329  -0.2706329), wk =   0.0004883
        k(  274) = (   0.1082532   0.1082532   0.1082532), wk =   0.0004883
        k(  275) = (   0.1353165   0.1353165   0.1082532), wk =   0.0014648
        k(  276) = (   0.1623798   0.1623798   0.1082532), wk =   0.0014648
        k(  277) = (   0.1894431   0.1894431   0.1082532), wk =   0.0014648
        k(  278) = (   0.2165064   0.2165064   0.1082532), wk =   0.0014648
        k(  279) = (   0.2435696   0.2435696   0.1082532), wk =   0.0014648
        k(  280) = (   0.2706329   0.2706329   0.1082532), wk =   0.0014648
        k(  281) = (   0.2976962   0.2976962   0.1082532), wk =   0.0014648
        k(  282) = (   0.3247595   0.3247595   0.1082532), wk =   0.0014648
        k(  283) = (   0.3518228   0.3518228   0.1082532), wk =   0.0014648
        k(  284) = (   0.3788861   0.3788861   0.1082532), wk =   0.0014648
        k(  285) = (   0.4059494   0.4059494   0.1082532), wk =   0.0014648
        k(  286) = (   0.4330127   0.4330127   0.1082532), wk =   0.0007324
        k(  287) = (   0.0000000   0.0000000   0.1082532), wk =   0.0003662
        k(  288) = (   0.1623798   0.1353165   0.1353165), wk =   0.0014648
        k(  289) = (   0.1894431   0.1623798   0.1353165), wk =   0.0029297
        k(  290) = (   0.2165064   0.1894431   0.1353165), wk =   0.0029297
        k(  291) = (   0.2435696   0.2165064   0.1353165), wk =   0.0029297
        k(  292) = (   0.2706329   0.2435696   0.1353165), wk =   0.0029297
        k(  293) = (   0.2976962   0.2706329   0.1353165), wk =   0.0029297
        k(  294) = (   0.3247595   0.2976962   0.1353165), wk =   0.0029297
        k(  295) = (   0.3518228   0.3247595   0.1353165), wk =   0.0029297
        k(  296) = (   0.3788861   0.3518228   0.1353165), wk =   0.0029297
        k(  297) = (   0.4059494   0.3788861   0.1353165), wk =   0.0029297
        k(  298) = (   0.4330127   0.4059494   0.1353165), wk =   0.0029297
        k(  299) = (   0.0000000  -0.0270633   0.1353165), wk =   0.0014648
        k(  300) = (   0.2165064   0.1623798   0.1623798), wk =   0.0014648
        k(  301) = (   0.2435696   0.1894431   0.1623798), wk =   0.0029297
        k(  302) = (   0.2706329   0.2165064   0.1623798), wk =   0.0029297
        k(  303) = (   0.2976962   0.2435696   0.1623798), wk =   0.0029297
        k(  304) = (   0.3247595   0.2706329   0.1623798), wk =   0.0029297
        k(  305) = (   0.3518228   0.2976962   0.1623798), wk =   0.0029297
        k(  306) = (   0.3788861   0.3247595   0.1623798), wk =   0.0029297
        k(  307) = (   0.4059494   0.3518228   0.1623798), wk =   0.0029297
        k(  308) = (   0.4330127   0.3788861   0.1623798), wk =   0.0029297
        k(  309) = (   0.4600760   0.4059494   0.1623798), wk =   0.0014648
        k(  310) = (   0.0000000  -0.0541266   0.1623798), wk =   0.0014648
        k(  311) = (   0.0270633  -0.0270633   0.1623798), wk =   0.0014648
        k(  312) = (   0.2706329   0.1894431   0.1894431), wk =   0.0014648
        k(  313) = (   0.2976962   0.2165064   0.1894431), wk =   0.0029297
        k(  314) = (   0.3247595   0.2435696   0.1894431), wk =   0.0029297
        k(  315) = (   0.3518228   0.2706329   0.1894431), wk =   0.0029297
        k(  316) = (   0.3788861   0.2976962   0.1894431), wk =   0.0029297
        k(  317) = (   0.4059494   0.3247595   0.1894431), wk =   0.0029297
        k(  318) = (   0.4330127   0.3518228   0.1894431), wk =   0.0029297
        k(  319) = (   0.4600760   0.3788861   0.1894431), wk =   0.0029297
        k(  320) = (   0.0000000  -0.0811899   0.1894431), wk =   0.0014648
        k(  321) = (   0.0270633  -0.0541266   0.1894431), wk =   0.0029297
        k(  322) = (   0.3247595   0.2165064   0.2165064), wk =   0.0014648
        k(  323) = (   0.3518228   0.2435696   0.2165064), wk =   0.0029297
        k(  324) = (   0.3788861   0.2706329   0.2165064), wk =   0.0029297
        k(  325) = (   0.4059494   0.2976962   0.2165064), wk =   0.0029297
        k(  326) = (   0.4330127   0.3247595   0.2165064), wk =   0.0029297
        k(  327) = (   0.4600760   0.3518228   0.2165064), wk =   0.0029297
        k(  328) = (   0.4871393   0.3788861   0.2165064), wk =   0.0014648
        k(  329) = (   0.0000000  -0.1082532   0.2165064), wk =   0.0014648
        k(  330) = (   0.0270633  -0.0811899   0.2165064), wk =   0.0029297
        k(  331) = (   0.0541266  -0.0541266   0.2165064), wk =   0.0014648
        k(  332) = (   0.3788861   0.2435696   0.2435696), wk =   0.0014648
        k(  333) = (   0.4059494   0.2706329   0.2435696), wk =   0.0029297
        k(  334) = (   0.4330127   0.2976962   0.2435696), wk =   0.0029297
        k(  335) = (   0.4600760   0.3247595   0.2435696), wk =   0.0029297
        k(  336) = (   0.4871393   0.3518228   0.2435696), wk =   0.0029297
        k(  337) = (   0.0000000  -0.1353165   0.2435696), wk =   0.0014648
        k(  338) = (   0.0270633  -0.1082532   0.2435696), wk =   0.0029297
        k(  339) = (   0.0541266  -0.0811899   0.2435696), wk =   0.0029297
        k(  340) = (   0.4330127   0.2706329   0.2706329), wk =   0.0014648
        k(  341) = (   0.4600760   0.2976962   0.2706329), wk =   0.0029297
        k(  342) = (   0.4871393   0.3247595   0.2706329), wk =   0.0029297
        k(  343) = (   0.5142026   0.3518228   0.2706329), wk =   0.0014648
        k(  344) = (   0.0000000  -0.1623798   0.2706329), wk =   0.0014648
        k(  345) = (   0.0270633  -0.1353165   0.2706329), wk =   0.0029297
        k(  346) = (   0.0541266  -0.1082532   0.2706329), wk =   0.0029297
        k(  347) = (   0.0811899  -0.0811899   0.2706329), wk =   0.0014648
        k(  348) = (   0.4871393   0.2976962   0.2976962), wk =   0.0014648
        k(  349) = (   0.5142026   0.3247595   0.2976962), wk =   0.0029297
        k(  350) = (   0.0000000  -0.1894431   0.2976962), wk =   0.0014648
        k(  351) = (   0.0270633  -0.1623798   0.2976962), wk =   0.0029297
        k(  352) = (   0.0541266  -0.1353165   0.2976962), wk =   0.0029297
        k(  353) = (   0.0811899  -0.1082532   0.2976962), wk =   0.0029297
        k(  354) = (   0.5412659   0.3247595   0.3247595), wk =   0.0004883
        k(  355) = (   0.0000000  -0.2165064   0.3247595), wk =   0.0014648
        k(  356) = (   0.0270633  -0.1894431   0.3247595), wk =   0.0029297
        k(  357) = (   0.0541266  -0.1623798   0.3247595), wk =   0.0029297
        k(  358) = (   0.0811899  -0.1353165   0.3247595), wk =   0.0029297
        k(  359) = (   0.1082532  -0.1082532   0.3247595), wk =   0.0014648
        k(  360) = (   0.0000000  -0.2435696   0.3518228), wk =   0.0014648
        k(  361) = (   0.0270633  -0.2165064   0.3518228), wk =   0.0029297
        k(  362) = (   0.0541266  -0.1894431   0.3518228), wk =   0.0029297
        k(  363) = (   0.0811899  -0.1623798   0.3518228), wk =   0.0029297
        k(  364) = (   0.1082532  -0.1353165   0.3518228), wk =   0.0029297
        k(  365) = (   0.0000000  -0.2706329   0.3788861), wk =   0.0014648
        k(  366) = (   0.0270633  -0.2435696   0.3788861), wk =   0.0029297
        k(  367) = (   0.0541266  -0.2165064   0.3788861), wk =   0.0029297
        k(  368) = (   0.0811899  -0.1894431   0.3788861), wk =   0.0029297
        k(  369) = (   0.1082532  -0.1623798   0.3788861), wk =   0.0029297
        k(  370) = (   0.1353165  -0.1353165   0.3788861), wk =   0.0014648
        k(  371) = (   0.0000000  -0.2976962   0.4059494), wk =   0.0014648
        k(  372) = (   0.0270633  -0.2706329   0.4059494), wk =   0.0029297
        k(  373) = (   0.0541266  -0.2435696   0.4059494), wk =   0.0029297
        k(  374) = (   0.0811899  -0.2165064   0.4059494), wk =   0.0029297
        k(  375) = (   0.1082532  -0.1894431   0.4059494), wk =   0.0029297
        k(  376) = (   0.1353165  -0.1623798   0.4059494), wk =   0.0029297
        k(  377) = (   0.0000000  -0.3247595   0.4330127), wk =   0.0014648
        k(  378) = (   0.0270633  -0.2976962   0.4330127), wk =   0.0029297
        k(  379) = (   0.0541266  -0.2706329   0.4330127), wk =   0.0029297
        k(  380) = (   0.0811899  -0.2435696   0.4330127), wk =   0.0029297
        k(  381) = (   0.1082532  -0.2165064   0.4330127), wk =   0.0029297
        k(  382) = (   0.1353165  -0.1894431   0.4330127), wk =   0.0029297
        k(  383) = (   0.1623798  -0.1623798   0.4330127), wk =   0.0014648
        k(  384) = (   0.0000000  -0.3518228   0.4600760), wk =   0.0014648
        k(  385) = (   0.0270633  -0.3247595   0.4600760), wk =   0.0029297
        k(  386) = (   0.0541266  -0.2976962   0.4600760), wk =   0.0029297
        k(  387) = (   0.0811899  -0.2706329   0.4600760), wk =   0.0029297
        k(  388) = (   0.1082532  -0.2435696   0.4600760), wk =   0.0029297
        k(  389) = (   0.1353165  -0.2165064   0.4600760), wk =   0.0029297
        k(  390) = (   0.1623798  -0.1894431   0.4600760), wk =   0.0029297
        k(  391) = (  -0.8660254  -0.3788861  -0.3788861), wk =   0.0007324
        k(  392) = (  -0.8389621  -0.3518228  -0.3788861), wk =   0.0029297
        k(  393) = (  -0.8118988  -0.3247595  -0.3788861), wk =   0.0029297
        k(  394) = (  -0.7848355  -0.2976962  -0.3788861), wk =   0.0029297
        k(  395) = (  -0.7577722  -0.2706329  -0.3788861), wk =   0.0029297
        k(  396) = (  -0.7307089  -0.2435696  -0.3788861), wk =   0.0029297
        k(  397) = (  -0.7036456  -0.2165064  -0.3788861), wk =   0.0029297
        k(  398) = (  -0.6765823  -0.1894431  -0.3788861), wk =   0.0014648
        k(  399) = (  -0.8118988  -0.3518228  -0.3518228), wk =   0.0014648
        k(  400) = (  -0.7848355  -0.3247595  -0.3518228), wk =   0.0029297
        k(  401) = (  -0.7577722  -0.2976962  -0.3518228), wk =   0.0029297
        k(  402) = (  -0.7307089  -0.2706329  -0.3518228), wk =   0.0029297
        k(  403) = (  -0.7036456  -0.2435696  -0.3518228), wk =   0.0029297
        k(  404) = (  -0.6765823  -0.2165064  -0.3518228), wk =   0.0029297
        k(  405) = (  -0.7577722  -0.3247595  -0.3247595), wk =   0.0014648
        k(  406) = (  -0.7307089  -0.2976962  -0.3247595), wk =   0.0029297
        k(  407) = (  -0.7036456  -0.2706329  -0.3247595), wk =   0.0029297
        k(  408) = (  -0.6765823  -0.2435696  -0.3247595), wk =   0.0029297
        k(  409) = (  -0.6495191  -0.2165064  -0.3247595), wk =   0.0014648
        k(  410) = (  -0.7036456  -0.2976962  -0.2976962), wk =   0.0014648
        k(  411) = (  -0.6765823  -0.2706329  -0.2976962), wk =   0.0029297
        k(  412) = (  -0.6495191  -0.2435696  -0.2976962), wk =   0.0029297
        k(  413) = (  -0.6495191  -0.2706329  -0.2706329), wk =   0.0014648
        k(  414) = (  -0.6224558  -0.2435696  -0.2706329), wk =   0.0014648
        k(  415) = (   0.1623798   0.1623798   0.1623798), wk =   0.0004883
        k(  416) = (   0.1894431   0.1894431   0.1623798), wk =   0.0014648
        k(  417) = (   0.2165064   0.2165064   0.1623798), wk =   0.0014648
        k(  418) = (   0.2435696   0.2435696   0.1623798), wk =   0.0014648
        k(  419) = (   0.2706329   0.2706329   0.1623798), wk =   0.0014648
        k(  420) = (   0.2976962   0.2976962   0.1623798), wk =   0.0014648
        k(  421) = (   0.3247595   0.3247595   0.1623798), wk =   0.0014648
        k(  422) = (   0.3518228   0.3518228   0.1623798), wk =   0.0014648
        k(  423) = (   0.3788861   0.3788861   0.1623798), wk =   0.0014648
        k(  424) = (   0.4059494   0.4059494   0.1623798), wk =   0.0014648
        k(  425) = (   0.4330127   0.4330127   0.1623798), wk =   0.0007324
        k(  426) = (   0.0000000   0.0000000   0.1623798), wk =   0.0003662
        k(  427) = (   0.2165064   0.1894431   0.1894431), wk =   0.0014648
        k(  428) = (   0.2435696   0.2165064   0.1894431), wk =   0.0029297
        k(  429) = (   0.2706329   0.2435696   0.1894431), wk =   0.0029297
        k(  430) = (   0.2976962   0.2706329   0.1894431), wk =   0.0029297
        k(  431) = (   0.3247595   0.2976962   0.1894431), wk =   0.0029297
        k(  432) = (   0.3518228   0.3247595   0.1894431), wk =   0.0029297
        k(  433) = (   0.3788861   0.3518228   0.1894431), wk =   0.0029297
        k(  434) = (   0.4059494   0.3788861   0.1894431), wk =   0.0029297
        k(  435) = (   0.4330127   0.4059494   0.1894431), wk =   0.0029297
        k(  436) = (   0.0000000  -0.0270633   0.1894431), wk =   0.0014648
        k(  437) = (   0.2706329   0.2165064   0.2165064), wk =   0.0014648
        k(  438) = (   0.2976962   0.2435696   0.2165064), wk =   0.0029297
        k(  439) = (   0.3247595   0.2706329   0.2165064), wk =   0.0029297
        k(  440) = (   0.3518228   0.2976962   0.2165064), wk =   0.0029297
        k(  441) = (   0.3788861   0.3247595   0.2165064), wk =   0.0029297
        k(  442) = (   0.4059494   0.3518228   0.2165064), wk =   0.0029297
        k(  443) = (   0.4330127   0.3788861   0.2165064), wk =   0.0029297
        k(  444) = (   0.4600760   0.4059494   0.2165064), wk =   0.0014648
        k(  445) = (   0.0000000  -0.0541266   0.2165064), wk =   0.0014648
        k(  446) = (   0.0270633  -0.0270633   0.2165064), wk =   0.0014648
        k(  447) = (   0.3247595   0.2435696   0.2435696), wk =   0.0014648
        k(  448) = (   0.3518228   0.2706329   0.2435696), wk =   0.0029297
        k(  449) = (   0.3788861   0.2976962   0.2435696), wk =   0.0029297
        k(  450) = (   0.4059494   0.3247595   0.2435696), wk =   0.0029297
        k(  451) = (   0.4330127   0.3518228   0.2435696), wk =   0.0029297
        k(  452) = (   0.4600760   0.3788861   0.2435696), wk =   0.0029297
        k(  453) = (   0.0000000  -0.0811899   0.2435696), wk =   0.0014648
        k(  454) = (   0.0270633  -0.0541266   0.2435696), wk =   0.0029297
        k(  455) = (   0.3788861   0.2706329   0.2706329), wk =   0.0014648
        k(  456) = (   0.4059494   0.2976962   0.2706329), wk =   0.0029297
        k(  457) = (   0.4330127   0.3247595   0.2706329), wk =   0.0029297
        k(  458) = (   0.4600760   0.3518228   0.2706329), wk =   0.0029297
        k(  459) = (   0.4871393   0.3788861   0.2706329), wk =   0.0014648
        k(  460) = (   0.0000000  -0.1082532   0.2706329), wk =   0.0014648
        k(  461) = (   0.0270633  -0.0811899   0.2706329), wk =   0.0029297
        k(  462) = (   0.0541266  -0.0541266   0.2706329), wk =   0.0014648
        k(  463) = (   0.4330127   0.2976962   0.2976962), wk =   0.0014648
        k(  464) = (   0.4600760   0.3247595   0.2976962), wk =   0.0029297
        k(  465) = (   0.4871393   0.3518228   0.2976962), wk =   0.0029297
        k(  466) = (   0.0000000  -0.1353165   0.2976962), wk =   0.0014648
        k(  467) = (   0.0270633  -0.1082532   0.2976962), wk =   0.0029297
        k(  468) = (   0.0541266  -0.0811899   0.2976962), wk =   0.0029297
        k(  469) = (   0.4871393   0.3247595   0.3247595), wk =   0.0014648
        k(  470) = (   0.5142026   0.3518228   0.3247595), wk =   0.0014648
        k(  471) = (   0.0000000  -0.1623798   0.3247595), wk =   0.0014648
        k(  472) = (   0.0270633  -0.1353165   0.3247595), wk =   0.0029297
        k(  473) = (   0.0541266  -0.1082532   0.3247595), wk =   0.0029297
        k(  474) = (   0.0811899  -0.0811899   0.3247595), wk =   0.0014648
        k(  475) = (   0.0000000  -0.1894431   0.3518228), wk =   0.0014648
        k(  476) = (   0.0270633  -0.1623798   0.3518228), wk =   0.0029297
        k(  477) = (   0.0541266  -0.1353165   0.3518228), wk =   0.0029297
        k(  478) = (   0.0811899  -0.1082532   0.3518228), wk =   0.0029297
        k(  479) = (   0.0000000  -0.2165064   0.3788861), wk =   0.0014648
        k(  480) = (   0.0270633  -0.1894431   0.3788861), wk =   0.0029297
        k(  481) = (   0.0541266  -0.1623798   0.3788861), wk =   0.0029297
        k(  482) = (   0.0811899  -0.1353165   0.3788861), wk =   0.0029297
        k(  483) = (   0.1082532  -0.1082532   0.3788861), wk =   0.0014648
        k(  484) = (   0.0000000  -0.2435696   0.4059494), wk =   0.0014648
        k(  485) = (   0.0270633  -0.2165064   0.4059494), wk =   0.0029297
        k(  486) = (   0.0541266  -0.1894431   0.4059494), wk =   0.0029297
        k(  487) = (   0.0811899  -0.1623798   0.4059494), wk =   0.0029297
        k(  488) = (   0.1082532  -0.1353165   0.4059494), wk =   0.0029297
        k(  489) = (   0.0000000  -0.2706329   0.4330127), wk =   0.0014648
        k(  490) = (   0.0270633  -0.2435696   0.4330127), wk =   0.0029297
        k(  491) = (   0.0541266  -0.2165064   0.4330127), wk =   0.0029297
        k(  492) = (   0.0811899  -0.1894431   0.4330127), wk =   0.0029297
        k(  493) = (   0.1082532  -0.1623798   0.4330127), wk =   0.0029297
        k(  494) = (   0.1353165  -0.1353165   0.4330127), wk =   0.0014648
        k(  495) = (   0.0000000  -0.2976962   0.4600760), wk =   0.0014648
        k(  496) = (   0.0270633  -0.2706329   0.4600760), wk =   0.0029297
        k(  497) = (   0.0541266  -0.2435696   0.4600760), wk =   0.0029297
        k(  498) = (   0.0811899  -0.2165064   0.4600760), wk =   0.0029297
        k(  499) = (   0.1082532  -0.1894431   0.4600760), wk =   0.0029297
        k(  500) = (   0.1353165  -0.1623798   0.4600760), wk =   0.0029297
        k(  501) = (   0.0000000  -0.3247595   0.4871393), wk =   0.0014648
        k(  502) = (   0.0270633  -0.2976962   0.4871393), wk =   0.0029297
        k(  503) = (   0.0541266  -0.2706329   0.4871393), wk =   0.0029297
        k(  504) = (   0.0811899  -0.2435696   0.4871393), wk =   0.0029297
        k(  505) = (   0.1082532  -0.2165064   0.4871393), wk =   0.0029297
        k(  506) = (   0.1353165  -0.1894431   0.4871393), wk =   0.0029297
        k(  507) = (   0.1623798  -0.1623798   0.4871393), wk =   0.0014648
        k(  508) = (  -0.8660254  -0.3518228  -0.3518228), wk =   0.0007324
        k(  509) = (  -0.8389621  -0.3247595  -0.3518228), wk =   0.0029297
        k(  510) = (  -0.8118988  -0.2976962  -0.3518228), wk =   0.0029297
        k(  511) = (  -0.7848355  -0.2706329  -0.3518228), wk =   0.0029297
        k(  512) = (  -0.7577722  -0.2435696  -0.3518228), wk =   0.0029297
        k(  513) = (  -0.7307089  -0.2165064  -0.3518228), wk =   0.0029297
        k(  514) = (  -0.7036456  -0.1894431  -0.3518228), wk =   0.0029297
        k(  515) = (  -0.8118988  -0.3247595  -0.3247595), wk =   0.0014648
        k(  516) = (  -0.7848355  -0.2976962  -0.3247595), wk =   0.0029297
        k(  517) = (  -0.7577722  -0.2706329  -0.3247595), wk =   0.0029297
        k(  518) = (  -0.7307089  -0.2435696  -0.3247595), wk =   0.0029297
        k(  519) = (  -0.7036456  -0.2165064  -0.3247595), wk =   0.0029297
        k(  520) = (  -0.6765823  -0.1894431  -0.3247595), wk =   0.0014648
        k(  521) = (  -0.7577722  -0.2976962  -0.2976962), wk =   0.0014648
        k(  522) = (  -0.7307089  -0.2706329  -0.2976962), wk =   0.0029297
        k(  523) = (  -0.7036456  -0.2435696  -0.2976962), wk =   0.0029297
        k(  524) = (  -0.6765823  -0.2165064  -0.2976962), wk =   0.0029297
        k(  525) = (  -0.7036456  -0.2706329  -0.2706329), wk =   0.0014648
        k(  526) = (  -0.6765823  -0.2435696  -0.2706329), wk =   0.0029297
        k(  527) = (  -0.6495191  -0.2165064  -0.2706329), wk =   0.0014648
        k(  528) = (  -0.6495191  -0.2435696  -0.2435696), wk =   0.0014648
        k(  529) = (   0.2165064   0.2165064   0.2165064), wk =   0.0004883
        k(  530) = (   0.2435696   0.2435696   0.2165064), wk =   0.0014648
        k(  531) = (   0.2706329   0.2706329   0.2165064), wk =   0.0014648
        k(  532) = (   0.2976962   0.2976962   0.2165064), wk =   0.0014648
        k(  533) = (   0.3247595   0.3247595   0.2165064), wk =   0.0014648
        k(  534) = (   0.3518228   0.3518228   0.2165064), wk =   0.0014648
        k(  535) = (   0.3788861   0.3788861   0.2165064), wk =   0.0014648
        k(  536) = (   0.4059494   0.4059494   0.2165064), wk =   0.0014648
        k(  537) = (   0.4330127   0.4330127   0.2165064), wk =   0.0007324
        k(  538) = (   0.0000000   0.0000000   0.2165064), wk =   0.0003662
        k(  539) = (   0.2706329   0.2435696   0.2435696), wk =   0.0014648
        k(  540) = (   0.2976962   0.2706329   0.2435696), wk =   0.0029297
        k(  541) = (   0.3247595   0.2976962   0.2435696), wk =   0.0029297
        k(  542) = (   0.3518228   0.3247595   0.2435696), wk =   0.0029297
        k(  543) = (   0.3788861   0.3518228   0.2435696), wk =   0.0029297
        k(  544) = (   0.4059494   0.3788861   0.2435696), wk =   0.0029297
        k(  545) = (   0.4330127   0.4059494   0.2435696), wk =   0.0029297
        k(  546) = (   0.0000000  -0.0270633   0.2435696), wk =   0.0014648
        k(  547) = (   0.3247595   0.2706329   0.2706329), wk =   0.0014648
        k(  548) = (   0.3518228   0.2976962   0.2706329), wk =   0.0029297
        k(  549) = (   0.3788861   0.3247595   0.2706329), wk =   0.0029297
        k(  550) = (   0.4059494   0.3518228   0.2706329), wk =   0.0029297
        k(  551) = (   0.4330127   0.3788861   0.2706329), wk =   0.0029297
        k(  552) = (   0.4600760   0.4059494   0.2706329), wk =   0.0014648
        k(  553) = (   0.0000000  -0.0541266   0.2706329), wk =   0.0014648
        k(  554) = (   0.0270633  -0.0270633   0.2706329), wk =   0.0014648
        k(  555) = (   0.3788861   0.2976962   0.2976962), wk =   0.0014648
        k(  556) = (   0.4059494   0.3247595   0.2976962), wk =   0.0029297
        k(  557) = (   0.4330127   0.3518228   0.2976962), wk =   0.0029297
        k(  558) = (   0.4600760   0.3788861   0.2976962), wk =   0.0029297
        k(  559) = (   0.0000000  -0.0811899   0.2976962), wk =   0.0014648
        k(  560) = (   0.0270633  -0.0541266   0.2976962), wk =   0.0029297
        k(  561) = (   0.4330127   0.3247595   0.3247595), wk =   0.0014648
        k(  562) = (   0.4600760   0.3518228   0.3247595), wk =   0.0029297
        k(  563) = (   0.4871393   0.3788861   0.3247595), wk =   0.0014648
        k(  564) = (   0.0000000  -0.1082532   0.3247595), wk =   0.0014648
        k(  565) = (   0.0270633  -0.0811899   0.3247595), wk =   0.0029297
        k(  566) = (   0.0541266  -0.0541266   0.3247595), wk =   0.0014648
        k(  567) = (   0.4871393   0.3518228   0.3518228), wk =   0.0014648
        k(  568) = (   0.0000000  -0.1353165   0.3518228), wk =   0.0014648
        k(  569) = (   0.0270633  -0.1082532   0.3518228), wk =   0.0029297
        k(  570) = (   0.0541266  -0.0811899   0.3518228), wk =   0.0029297
        k(  571) = (   0.0000000  -0.1623798   0.3788861), wk =   0.0014648
        k(  572) = (   0.0270633  -0.1353165   0.3788861), wk =   0.0029297
        k(  573) = (   0.0541266  -0.1082532   0.3788861), wk =   0.0029297
        k(  574) = (   0.0811899  -0.0811899   0.3788861), wk =   0.0014648
        k(  575) = (   0.0000000  -0.1894431   0.4059494), wk =   0.0014648
        k(  576) = (   0.0270633  -0.1623798   0.4059494), wk =   0.0029297
        k(  577) = (   0.0541266  -0.1353165   0.4059494), wk =   0.0029297
        k(  578) = (   0.0811899  -0.1082532   0.4059494), wk =   0.0029297
        k(  579) = (   0.0000000  -0.2165064   0.4330127), wk =   0.0014648
        k(  580) = (   0.0270633  -0.1894431   0.4330127), wk =   0.0029297
        k(  581) = (   0.0541266  -0.1623798   0.4330127), wk =   0.0029297
        k(  582) = (   0.0811899  -0.1353165   0.4330127), wk =   0.0029297
        k(  583) = (   0.1082532  -0.1082532   0.4330127), wk =   0.0014648
        k(  584) = (   0.0000000  -0.2435696   0.4600760), wk =   0.0014648
        k(  585) = (   0.0270633  -0.2165064   0.4600760), wk =   0.0029297
        k(  586) = (   0.0541266  -0.1894431   0.4600760), wk =   0.0029297
        k(  587) = (   0.0811899  -0.1623798   0.4600760), wk =   0.0029297
        k(  588) = (   0.1082532  -0.1353165   0.4600760), wk =   0.0029297
        k(  589) = (   0.0000000  -0.2706329   0.4871393), wk =   0.0014648
        k(  590) = (   0.0270633  -0.2435696   0.4871393), wk =   0.0029297
        k(  591) = (   0.0541266  -0.2165064   0.4871393), wk =   0.0029297
        k(  592) = (   0.0811899  -0.1894431   0.4871393), wk =   0.0029297
        k(  593) = (   0.1082532  -0.1623798   0.4871393), wk =   0.0029297
        k(  594) = (   0.1353165  -0.1353165   0.4871393), wk =   0.0014648
        k(  595) = (   0.0000000  -0.2976962   0.5142026), wk =   0.0014648
        k(  596) = (   0.0270633  -0.2706329   0.5142026), wk =   0.0029297
        k(  597) = (   0.0541266  -0.2435696   0.5142026), wk =   0.0029297
        k(  598) = (   0.0811899  -0.2165064   0.5142026), wk =   0.0029297
        k(  599) = (   0.1082532  -0.1894431   0.5142026), wk =   0.0029297
        k(  600) = (   0.1353165  -0.1623798   0.5142026), wk =   0.0029297
        k(  601) = (  -0.8660254  -0.3247595  -0.3247595), wk =   0.0007324
        k(  602) = (  -0.8389621  -0.2976962  -0.3247595), wk =   0.0029297
        k(  603) = (  -0.8118988  -0.2706329  -0.3247595), wk =   0.0029297
        k(  604) = (  -0.7848355  -0.2435696  -0.3247595), wk =   0.0029297
        k(  605) = (  -0.7577722  -0.2165064  -0.3247595), wk =   0.0029297
        k(  606) = (  -0.7307089  -0.1894431  -0.3247595), wk =   0.0029297
        k(  607) = (  -0.7036456  -0.1623798  -0.3247595), wk =   0.0014648
        k(  608) = (  -0.8118988  -0.2976962  -0.2976962), wk =   0.0014648
        k(  609) = (  -0.7848355  -0.2706329  -0.2976962), wk =   0.0029297
        k(  610) = (  -0.7577722  -0.2435696  -0.2976962), wk =   0.0029297
        k(  611) = (  -0.7307089  -0.2165064  -0.2976962), wk =   0.0029297
        k(  612) = (  -0.7036456  -0.1894431  -0.2976962), wk =   0.0029297
        k(  613) = (  -0.7577722  -0.2706329  -0.2706329), wk =   0.0014648
        k(  614) = (  -0.7307089  -0.2435696  -0.2706329), wk =   0.0029297
        k(  615) = (  -0.7036456  -0.2165064  -0.2706329), wk =   0.0029297
        k(  616) = (  -0.6765823  -0.1894431  -0.2706329), wk =   0.0014648
        k(  617) = (  -0.7036456  -0.2435696  -0.2435696), wk =   0.0014648
        k(  618) = (  -0.6765823  -0.2165064  -0.2435696), wk =   0.0029297
        k(  619) = (  -0.6495191  -0.2165064  -0.2165064), wk =   0.0004883
        k(  620) = (   0.2706329   0.2706329   0.2706329), wk =   0.0004883
        k(  621) = (   0.2976962   0.2976962   0.2706329), wk =   0.0014648
        k(  622) = (   0.3247595   0.3247595   0.2706329), wk =   0.0014648
        k(  623) = (   0.3518228   0.3518228   0.2706329), wk =   0.0014648
        k(  624) = (   0.3788861   0.3788861   0.2706329), wk =   0.0014648
        k(  625) = (   0.4059494   0.4059494   0.2706329), wk =   0.0014648
        k(  626) = (   0.4330127   0.4330127   0.2706329), wk =   0.0007324
        k(  627) = (   0.0000000   0.0000000   0.2706329), wk =   0.0003662
        k(  628) = (   0.3247595   0.2976962   0.2976962), wk =   0.0014648
        k(  629) = (   0.3518228   0.3247595   0.2976962), wk =   0.0029297
        k(  630) = (   0.3788861   0.3518228   0.2976962), wk =   0.0029297
        k(  631) = (   0.4059494   0.3788861   0.2976962), wk =   0.0029297
        k(  632) = (   0.4330127   0.4059494   0.2976962), wk =   0.0029297
        k(  633) = (   0.0000000  -0.0270633   0.2976962), wk =   0.0014648
        k(  634) = (   0.3788861   0.3247595   0.3247595), wk =   0.0014648
        k(  635) = (   0.4059494   0.3518228   0.3247595), wk =   0.0029297
        k(  636) = (   0.4330127   0.3788861   0.3247595), wk =   0.0029297
        k(  637) = (   0.4600760   0.4059494   0.3247595), wk =   0.0014648
        k(  638) = (   0.0000000  -0.0541266   0.3247595), wk =   0.0014648
        k(  639) = (   0.0270633  -0.0270633   0.3247595), wk =   0.0014648
        k(  640) = (   0.4330127   0.3518228   0.3518228), wk =   0.0014648
        k(  641) = (   0.4600760   0.3788861   0.3518228), wk =   0.0029297
        k(  642) = (   0.0000000  -0.0811899   0.3518228), wk =   0.0014648
        k(  643) = (   0.0270633  -0.0541266   0.3518228), wk =   0.0029297
        k(  644) = (   0.4871393   0.3788861   0.3788861), wk =   0.0004883
        k(  645) = (   0.0000000  -0.1082532   0.3788861), wk =   0.0014648
        k(  646) = (   0.0270633  -0.0811899   0.3788861), wk =   0.0029297
        k(  647) = (   0.0541266  -0.0541266   0.3788861), wk =   0.0014648
        k(  648) = (   0.0000000  -0.1353165   0.4059494), wk =   0.0014648
        k(  649) = (   0.0270633  -0.1082532   0.4059494), wk =   0.0029297
        k(  650) = (   0.0541266  -0.0811899   0.4059494), wk =   0.0029297
        k(  651) = (   0.0000000  -0.1623798   0.4330127), wk =   0.0014648
        k(  652) = (   0.0270633  -0.1353165   0.4330127), wk =   0.0029297
        k(  653) = (   0.0541266  -0.1082532   0.4330127), wk =   0.0029297
        k(  654) = (   0.0811899  -0.0811899   0.4330127), wk =   0.0014648
        k(  655) = (   0.0000000  -0.1894431   0.4600760), wk =   0.0014648
        k(  656) = (   0.0270633  -0.1623798   0.4600760), wk =   0.0029297
        k(  657) = (   0.0541266  -0.1353165   0.4600760), wk =   0.0029297
        k(  658) = (   0.0811899  -0.1082532   0.4600760), wk =   0.0029297
        k(  659) = (   0.0000000  -0.2165064   0.4871393), wk =   0.0014648
        k(  660) = (   0.0270633  -0.1894431   0.4871393), wk =   0.0029297
        k(  661) = (   0.0541266  -0.1623798   0.4871393), wk =   0.0029297
        k(  662) = (   0.0811899  -0.1353165   0.4871393), wk =   0.0029297
        k(  663) = (   0.1082532  -0.1082532   0.4871393), wk =   0.0014648
        k(  664) = (   0.0000000  -0.2435696   0.5142026), wk =   0.0014648
        k(  665) = (   0.0270633  -0.2165064   0.5142026), wk =   0.0029297
        k(  666) = (   0.0541266  -0.1894431   0.5142026), wk =   0.0029297
        k(  667) = (   0.0811899  -0.1623798   0.5142026), wk =   0.0029297
        k(  668) = (   0.1082532  -0.1353165   0.5142026), wk =   0.0029297
        k(  669) = (   0.0000000  -0.2706329   0.5412659), wk =   0.0014648
        k(  670) = (   0.0270633  -0.2435696   0.5412659), wk =   0.0029297
        k(  671) = (   0.0541266  -0.2165064   0.5412659), wk =   0.0029297
        k(  672) = (   0.0811899  -0.1894431   0.5412659), wk =   0.0029297
        k(  673) = (   0.1082532  -0.1623798   0.5412659), wk =   0.0029297
        k(  674) = (   0.1353165  -0.1353165   0.5412659), wk =   0.0014648
        k(  675) = (  -0.8660254  -0.2976962  -0.2976962), wk =   0.0007324
        k(  676) = (  -0.8389621  -0.2706329  -0.2976962), wk =   0.0029297
        k(  677) = (  -0.8118988  -0.2435696  -0.2976962), wk =   0.0029297
        k(  678) = (  -0.7848355  -0.2165064  -0.2976962), wk =   0.0029297
        k(  679) = (  -0.7577722  -0.1894431  -0.2976962), wk =   0.0029297
        k(  680) = (  -0.7307089  -0.1623798  -0.2976962), wk =   0.0029297
        k(  681) = (  -0.8118988  -0.2706329  -0.2706329), wk =   0.0014648
        k(  682) = (  -0.7848355  -0.2435696  -0.2706329), wk =   0.0029297
        k(  683) = (  -0.7577722  -0.2165064  -0.2706329), wk =   0.0029297
        k(  684) = (  -0.7307089  -0.1894431  -0.2706329), wk =   0.0029297
        k(  685) = (  -0.7036456  -0.1623798  -0.2706329), wk =   0.0014648
        k(  686) = (  -0.7577722  -0.2435696  -0.2435696), wk =   0.0014648
        k(  687) = (  -0.7307089  -0.2165064  -0.2435696), wk =   0.0029297
        k(  688) = (  -0.7036456  -0.1894431  -0.2435696), wk =   0.0029297
        k(  689) = (  -0.7036456  -0.2165064  -0.2165064), wk =   0.0014648
        k(  690) = (  -0.6765823  -0.1894431  -0.2165064), wk =   0.0014648
        k(  691) = (   0.3247595   0.3247595   0.3247595), wk =   0.0004883
        k(  692) = (   0.3518228   0.3518228   0.3247595), wk =   0.0014648
        k(  693) = (   0.3788861   0.3788861   0.3247595), wk =   0.0014648
        k(  694) = (   0.4059494   0.4059494   0.3247595), wk =   0.0014648
        k(  695) = (   0.4330127   0.4330127   0.3247595), wk =   0.0007324
        k(  696) = (   0.0000000   0.0000000   0.3247595), wk =   0.0003662
        k(  697) = (   0.3788861   0.3518228   0.3518228), wk =   0.0014648
        k(  698) = (   0.4059494   0.3788861   0.3518228), wk =   0.0029297
        k(  699) = (   0.4330127   0.4059494   0.3518228), wk =   0.0029297
        k(  700) = (   0.0000000  -0.0270633   0.3518228), wk =   0.0014648
        k(  701) = (   0.4330127   0.3788861   0.3788861), wk =   0.0014648
        k(  702) = (   0.4600760   0.4059494   0.3788861), wk =   0.0014648
        k(  703) = (   0.0000000  -0.0541266   0.3788861), wk =   0.0014648
        k(  704) = (   0.0270633  -0.0270633   0.3788861), wk =   0.0014648
        k(  705) = (   0.0000000  -0.0811899   0.4059494), wk =   0.0014648
        k(  706) = (   0.0270633  -0.0541266   0.4059494), wk =   0.0029297
        k(  707) = (   0.0000000  -0.1082532   0.4330127), wk =   0.0014648
        k(  708) = (   0.0270633  -0.0811899   0.4330127), wk =   0.0029297
        k(  709) = (   0.0541266  -0.0541266   0.4330127), wk =   0.0014648
        k(  710) = (   0.0000000  -0.1353165   0.4600760), wk =   0.0014648
        k(  711) = (   0.0270633  -0.1082532   0.4600760), wk =   0.0029297
        k(  712) = (   0.0541266  -0.0811899   0.4600760), wk =   0.0029297
        k(  713) = (   0.0000000  -0.1623798   0.4871393), wk =   0.0014648
        k(  714) = (   0.0270633  -0.1353165   0.4871393), wk =   0.0029297
        k(  715) = (   0.0541266  -0.1082532   0.4871393), wk =   0.0029297
        k(  716) = (   0.0811899  -0.0811899   0.4871393), wk =   0.0014648
        k(  717) = (   0.0000000  -0.1894431   0.5142026), wk =   0.0014648
        k(  718) = (   0.0270633  -0.1623798   0.5142026), wk =   0.0029297
        k(  719) = (   0.0541266  -0.1353165   0.5142026), wk =   0.0029297
        k(  720) = (   0.0811899  -0.1082532   0.5142026), wk =   0.0029297
[...]
    15.7867  24.4400  24.6265  25.2822

     occupation numbers 
     1.0000   1.0000   1.0000   1.0000   1.0000   1.0000   1.0000   1.0000
     1.0000   0.0000   0.0000   0.0000

          k =-0.8643-0.1115-0.1394 (  1046 PWs)   bands (ev):

   -22.2448  -5.4340  -4.8922  -4.6911   4.5707   4.7952  13.3459  14.3673
    15.5951  24.2586  24.7106  25.1673

     occupation numbers 
     1.0000   1.0000   1.0000   1.0000   1.0000   1.0000   1.0000   1.0000
     1.0000   0.0000   0.0000   0.0000

          k =-0.8365-0.0836-0.1394 (  1045 PWs)   bands (ev):

   -22.2390  -5.3580  -4.9939  -4.6604   4.5379   4.7113  13.3483  14.6945
    15.3807  24.1184  24.8297  25.0782

     occupation numbers 
     1.0000   1.0000   1.0000   1.0000   1.0000   1.0000   1.0000   1.0000
     1.0000   0.0000   0.0000   0.0000

          k =-0.8365-0.1115-0.1115 (  1042 PWs)   bands (ev):

   -22.2352  -5.3275  -5.0304  -4.6571   4.5326   4.6661  13.3192  14.7472
    15.4235  24.4771  24.4928  24.9681

     occupation numbers 
     1.0000   1.0000   1.0000   1.0000   1.0000   1.0000   1.0000   1.0000
     1.0000   0.0000   0.0000   0.0000

          k =-0.8086-0.0836-0.1115 (  1042 PWs)   bands (ev):

   -22.2319  -5.2539  -5.1150  -4.6450   4.5364   4.6054  13.3030  14.9911
    15.2608  24.4004  24.6547  24.8135

     occupation numbers 
     1.0000   1.0000   1.0000   1.0000   1.0000   1.0000   1.0000   1.0000
     1.0000   0.0000   0.0000   0.0000

          k =-0.0000-0.0000 0.6692 (  1048 PWs)   bands (ev):

   -22.2895  -5.5495  -4.6998  -4.6998   4.7708   5.0537  14.0377  14.0377
    14.6906  22.9918  26.0291  26.0291

     occupation numbers 
     1.0000   1.0000   1.0000   1.0000   1.0000   1.0000   1.0000   1.0000
     1.0000   0.0000   0.0000   0.0000

          k =-0.0000-0.0279 0.6970 (  1042 PWs)   bands (ev):

   -22.2643  -5.4647  -4.7562  -4.7544   4.6051   4.9040  14.0199  14.1889
    14.8588  23.2830  25.6523  25.6601

     occupation numbers 
     1.0000   1.0000   1.0000   1.0000   1.0000   1.0000   1.0000   1.0000
     1.0000   0.0000   0.0000   0.0000

          k =-0.0000-0.0558 0.7249 (  1042 PWs)   bands (ev):

   -22.2456  -5.4012  -4.7975  -4.7924   4.5003   4.7672  13.8714  14.2973
    15.1732  23.6257  25.2521  25.3270

     occupation numbers 
     1.0000   1.0000   1.0000   1.0000   1.0000   1.0000   1.0000   1.0000
     1.0000   0.0000   0.0000   0.0000

          k = 0.0279-0.0279 0.7249 (  1042 PWs)   bands (ev):

   -22.2432  -5.3746  -4.8379  -4.7726   4.4661   4.7369  14.0002  14.4160
    14.9798  23.5527  25.2821  25.3354

     occupation numbers 
     1.0000   1.0000   1.0000   1.0000   1.0000   1.0000   1.0000   1.0000
     1.0000   0.0000   0.0000   0.0000

          k =-0.0000-0.0836 0.7528 (  1041 PWs)   bands (ev):

   -22.2340  -5.3618  -4.8228  -4.8146   4.4506   4.6654  13.7647  14.3623
    15.4085  24.0063  24.8390  25.0937

     occupation numbers 
     1.0000   1.0000   1.0000   1.0000   1.0000   1.0000   1.0000   1.0000
     1.0000   0.0000   0.0000   0.0000

          k = 0.0279-0.0558 0.7528 (  1044 PWs)   bands (ev):

   -22.2285  -5.3065  -4.9030  -4.7792   4.3898   4.5973  13.9056  14.5625
    15.1920  23.8661  24.9296  25.0431

     occupation numbers 
     1.0000   1.0000   1.0000   1.0000   1.0000   1.0000   1.0000   1.0000
     1.0000   0.0000   0.0000   0.0000

          k =-0.8922-0.1115-0.1115 (  1040 PWs)   bands (ev):

   -22.2301  -5.3484  -4.8314  -4.8220   4.4388   4.6256  13.7277  14.3839
    15.4940  24.3613  24.4735  25.0094

     occupation numbers 
     1.0000   1.0000   1.0000   1.0000   1.0000   1.0000   1.0000   1.0000
     1.0000   0.0000   0.0000   0.0000

          k =-0.8643-0.0836-0.1115 (  1039 PWs)   bands (ev):

   -22.2211  -5.2673  -4.9418  -4.7807   4.3660   4.5095  13.8481  14.6253
    15.3347  24.2086  24.5727  24.8746

     occupation numbers 
     1.0000   1.0000   1.0000   1.0000   1.0000   1.0000   1.0000   1.0000
     1.0000   0.0000   0.0000   0.0000

          k =-0.8365-0.0558-0.1115 (  1040 PWs)   bands (ev):

   -22.2180  -5.2228  -4.9982  -4.7644   4.3446   4.4666  13.8585  14.8208
    15.2008  24.1374  24.6788  24.7747

     occupation numbers 
     1.0000   1.0000   1.0000   1.0000   1.0000   1.0000   1.0000   1.0000
     1.0000   0.0000   0.0000   0.0000

          k =-0.8365-0.0836-0.0836 (  1036 PWs)   bands (ev):

   -22.2144  -5.1732  -5.0521  -4.7584   4.3469   4.4043  13.8375  14.9279
    15.1936  24.4135  24.4322  24.6571

     occupation numbers 
     1.0000   1.0000   1.0000   1.0000   1.0000   1.0000   1.0000   1.0000
     1.0000   0.0000   0.0000   0.0000

          k =-0.0000 0.0000 0.7249 (  1040 PWs)   bands (ev):

   -22.2408  -5.3512  -4.8136  -4.8136   4.4279   4.7091  14.3799  14.3799
    14.6914  23.4796  25.3291  25.3291

     occupation numbers 
     1.0000   1.0000   1.0000   1.0000   1.0000   1.0000   1.0000   1.0000
     1.0000   0.0000   0.0000   0.0000

          k =-0.0000-0.0279 0.7528 (  1043 PWs)   bands (ev):

   -22.2232  -5.2650  -4.8557  -4.8547   4.3129   4.5390  14.3362  14.5198
    14.9332  23.7258  24.9959  25.0233

     occupation numbers 
     1.0000   1.0000   1.0000   1.0000   1.0000   1.0000   1.0000   1.0000
     1.0000   0.0000   0.0000   0.0000

          k =-0.0000-0.0558 0.7807 (  1040 PWs)   bands (ev):

   -22.2123  -5.2112  -4.8815  -4.8787   4.2603   4.4127  14.2405  14.6049
    15.1778  24.0114  24.6599  24.8054

     occupation numbers 
     1.0000   1.0000   1.0000   1.0000   1.0000   1.0000   1.0000   1.0000
     1.0000   0.0000   0.0000   0.0000

          k = 0.0279-0.0279 0.7807 (  1044 PWs)   bands (ev):

   -22.2094  -5.1824  -4.9239  -4.8583   4.2240   4.3800  14.3451  14.7190
    15.0350  23.9406  24.7239  24.7508

     occupation numbers 
     1.0000   1.0000   1.0000   1.0000   1.0000   1.0000   1.0000   1.0000
     1.0000   0.0000   0.0000   0.0000

          k =-0.8922-0.0836-0.0836 (  1038 PWs)   bands (ev):

   -22.2087  -5.1929  -4.8901  -4.8865   4.2518   4.3602  14.2063  14.6334
    15.2674  24.2976  24.3573  24.7261

     occupation numbers 
     1.0000   1.0000   1.0000   1.0000   1.0000   1.0000   1.0000   1.0000
     1.0000   0.0000   0.0000   0.0000

          k =-0.8643-0.0558-0.0836 (  1043 PWs)   bands (ev):

   -22.2024  -5.1307  -4.9711  -4.8560   4.1976   4.2782  14.3048  14.8233
    15.1431  24.1870  24.4555  24.5909

     occupation numbers 
     1.0000   1.0000   1.0000   1.0000   1.0000   1.0000   1.0000   1.0000
     1.0000   0.0000   0.0000   0.0000

          k =-0.8365-0.0558-0.0558 (  1048 PWs)   bands (ev):

   -22.1990  -5.0533  -5.0533  -4.8461   4.2043   4.2043  14.2993  15.0301
    15.0301  24.3721  24.3875  24.3875

     occupation numbers 
     1.0000   1.0000   1.0000   1.0000   1.0000   1.0000   1.0000   1.0000
     1.0000   0.0000   0.0000   0.0000

          k =-0.0000 0.0000 0.7807 (  1048 PWs)   bands (ev):

   -22.2065  -5.1602  -4.8984  -4.8984   4.1829   4.3506  14.6852  14.6852
    14.8063  23.8699  24.7427  24.7427

     occupation numbers 
     1.0000   1.0000   1.0000   1.0000   1.0000   1.0000   1.0000   1.0000
     1.0000   0.0000   0.0000   0.0000

          k =-0.0000-0.0279 0.8086 (  1048 PWs)   bands (ev):

   -22.1962  -5.0943  -4.9245  -4.9240   4.1178   4.2157  14.6410  14.7870
    15.0140  24.0516  24.4967  24.5411

     occupation numbers 
     1.0000   1.0000   1.0000   1.0000   1.0000   1.0000   1.0000   1.0000
     1.0000   0.0000   0.0000   0.0000

          k =-0.8922-0.0558-0.0558 (  1048 PWs)   bands (ev):

   -22.1927  -5.0720  -4.9333  -4.9323   4.1079   4.1576  14.6092  14.8213
    15.1062  24.2509  24.2762  24.4673

     occupation numbers 
     1.0000   1.0000   1.0000   1.0000   1.0000   1.0000   1.0000   1.0000
     1.0000   0.0000   0.0000   0.0000

          k =-0.8643-0.0279-0.0558 (  1048 PWs)   bands (ev):

   -22.1895  -5.0371  -4.9770  -4.9160   4.0787   4.1150  14.6666  14.9324
    15.0322  24.1931  24.3567  24.3601

     occupation numbers 
     1.0000   1.0000   1.0000   1.0000   1.0000   1.0000   1.0000   1.0000
     1.0000   0.0000   0.0000   0.0000

          k =-0.0000 0.0000 0.8365 (  1048 PWs)   bands (ev):

   -22.1863  -5.0202  -4.9508  -4.9508   4.0358   4.0846  14.8999  14.8999
    14.9278  24.1242  24.3509  24.3509

     occupation numbers 
     1.0000   1.0000   1.0000   1.0000   1.0000   1.0000   1.0000   1.0000
     1.0000   0.0000   0.0000   0.0000

          k =-0.8922-0.0279-0.0279 (  1048 PWs)   bands (ev):

   -22.1829  -4.9950  -4.9597  -4.9595   4.0175   4.0302  14.8813  14.9382
    15.0099  24.2224  24.2285  24.2811

     occupation numbers 
     1.0000   1.0000   1.0000   1.0000   1.0000   1.0000   1.0000   1.0000
     1.0000   0.0000   0.0000   0.0000

          k =-0.8922-0.8922-0.8922 (  1048 PWs)   bands (ev):

   -22.1796  -4.9685  -4.9685  -4.9685   3.9867   3.9867  14.9778  14.9778
    14.9778  24.2128  24.2128  24.2128

     occupation numbers 
     1.0000   1.0000   1.0000   1.0000   1.0000   1.0000   1.0000   1.0000
     1.0000   0.0000   0.0000   0.0000

     the Fermi energy is    17.1551 ev

!    total energy              =     -81.20780462 Ry
     estimated scf accuracy    <          2.6E-11 Ry
     smearing contrib. (-TS)   =      -0.00004752 Ry
     internal energy E=F+TS    =     -81.20775710 Ry

     The total energy is F=E-TS. E is the sum of the following terms:
     one-electron contribution =       1.39407089 Ry
     hartree contribution      =       9.93535984 Ry
     xc contribution           =     -17.51698405 Ry
     ewald contribution        =     -75.02020378 Ry

     convergence has been achieved in   8 iterations

     Forces acting on atoms (cartesian axes, Ry/au):

     atom    1 type  1   force =    -0.00000000   -0.00000000   -0.00000000
     atom    2 type  2   force =    -0.00000000    0.00000000    0.00000000
     atom    3 type  2   force =    -0.00000000   -0.00000000    0.00000000
     atom    4 type  2   force =     0.00000000   -0.00000000   -0.00000000
     atom    5 type  2   force =     0.00000000    0.00000000    0.00000000
     atom    6 type  2   force =    -0.00000000    0.00000000   -0.00000000
     atom    7 type  2   force =    -0.00000000   -0.00000000   -0.00000000
     The non-local contrib.  to forces
     atom    1 type  1   force =     0.00000000    0.00000000    0.00000000
     atom    2 type  2   force =    -0.00000000   -0.00000000   -0.00000000
     atom    3 type  2   force =    -0.00000000   -0.00000000   -0.00000000
     atom    4 type  2   force =    -0.00000000   -0.00000000   -0.00000000
     atom    5 type  2   force =     0.00000000    0.00000000   -0.00000000
     atom    6 type  2   force =     0.00000000    0.00000000   -0.00000000
     atom    7 type  2   force =    -0.00000000   -0.00000000   -0.00000000
     The ionic contribution  to forces
     atom    1 type  1   force =    -0.00000000   -0.00000000   -0.00000000
     atom    2 type  2   force =    -0.00000000   -0.00000000    0.00000000
     atom    3 type  2   force =    -0.00000000    0.00000000    0.00000000
     atom    4 type  2   force =     0.00000000   -0.00000000    0.00000000
     atom    5 type  2   force =    -0.00000000    0.00000000    0.00000000
     atom    6 type  2   force =     0.00000000    0.00000000    0.00000000
     atom    7 type  2   force =     0.00000000    0.00000000   -0.00000000
     The local contribution  to forces
     atom    1 type  1   force =     0.00000000   -0.00000000    0.00000000
     atom    2 type  2   force =     0.00000000    0.00000000    0.00000000
     atom    3 type  2   force =    -0.00000000   -0.00000000    0.00000000
     atom    4 type  2   force =    -0.00000000    0.00000000    0.00000000
     atom    5 type  2   force =     0.00000000   -0.00000000    0.00000000
     atom    6 type  2   force =     0.00000000   -0.00000000   -0.00000000
     atom    7 type  2   force =     0.00000000   -0.00000000   -0.00000000
     The core correction contribution to forces
     atom    1 type  1   force =    -0.00000000   -0.00000000    0.00000000
     atom    2 type  2   force =     0.00000000    0.00000000    0.00000000
     atom    3 type  2   force =     0.00000000    0.00000000    0.00000000
     atom    4 type  2   force =     0.00000000    0.00000000    0.00000000
     atom    5 type  2   force =     0.00000000    0.00000000    0.00000000
     atom    6 type  2   force =     0.00000000    0.00000000    0.00000000
     atom    7 type  2   force =     0.00000000    0.00000000    0.00000000
     The Hubbard contrib.    to forces
     atom    1 type  1   force =     0.00000000    0.00000000    0.00000000
     atom    2 type  2   force =     0.00000000    0.00000000    0.00000000
     atom    3 type  2   force =     0.00000000    0.00000000    0.00000000
     atom    4 type  2   force =     0.00000000    0.00000000    0.00000000
     atom    5 type  2   force =     0.00000000    0.00000000    0.00000000
     atom    6 type  2   force =     0.00000000    0.00000000    0.00000000
     atom    7 type  2   force =     0.00000000    0.00000000    0.00000000
     The SCF correction term to forces
     atom    1 type  1   force =     0.00000000    0.00000000   -0.00000000
     atom    2 type  2   force =    -0.00000000   -0.00000000    0.00000000
     atom    3 type  2   force =     0.00000000    0.00000000   -0.00000000
     atom    4 type  2   force =     0.00000000   -0.00000000    0.00000000
     atom    5 type  2   force =    -0.00000000    0.00000000   -0.00000000
     atom    6 type  2   force =    -0.00000000   -0.00000000    0.00000000
     atom    7 type  2   force =    -0.00000000    0.00000000   -0.00000000

     Total force =     0.000000     Total SCF correction =     0.000000


     Computing stress (Cartesian axis) and pressure

          total   stress  (Ry/bohr**3)                   (kbar)     P=     1999.87
   0.01359484  -0.00000000  -0.00000000         1999.87       -0.00       -0.00
  -0.00000000   0.01359484  -0.00000000           -0.00     1999.87       -0.00
  -0.00000000  -0.00000000   0.01359484           -0.00       -0.00     1999.87

     kinetic stress (kbar)  22330.11     -0.00     -0.00
                               -0.00  22330.11     -0.00
                               -0.00     -0.00  22330.11

     local   stress (kbar)   5139.86     -0.00     -0.00
                               -0.00   5139.86      0.00
                               -0.00      0.00   5139.86

     nonloc. stress (kbar)   4612.92     -0.00     -0.00
                               -0.00   4612.92     -0.00
                               -0.00     -0.00   4612.92

     hartree stress (kbar)   3679.37      0.00      0.00
                                0.00   3679.37     -0.00
                                0.00     -0.00   3679.37

     exc-cor stress (kbar)  -4083.46     -0.00      0.00
                               -0.00  -4083.46      0.00
                                0.00      0.00  -4083.46

     corecor stress (kbar)  -1896.62     -0.00     -0.00
                               -0.00  -1896.62      0.00
                               -0.00      0.00  -1896.62

     ewald   stress (kbar) -27782.30     -0.00     -0.00
                               -0.00 -27782.30      0.00
                               -0.00      0.00 -27782.30

     hubbard stress (kbar)      0.00      0.00      0.00
                                0.00      0.00      0.00
                                0.00      0.00      0.00

     DFT-D   stress (kbar)      0.00      0.00      0.00
                                0.00      0.00      0.00
                                0.00      0.00      0.00

     XDM     stress (kbar)      0.00      0.00      0.00
                                0.00      0.00      0.00
                                0.00      0.00      0.00

     dft-nl  stress (kbar)      0.00      0.00      0.00
                                0.00      0.00      0.00
                                0.00      0.00      0.00

     TS-vdW  stress (kbar)      0.00      0.00      0.00
                                0.00      0.00      0.00
                                0.00      0.00      0.00


                                0.00      0.00      0.00
                                0.00      0.00      0.00


                                0.00      0.00      0.00


     Writing output data file ./tmp/Ca1H6.save/
 
     init_run     :      1.06s CPU      1.65s WALL (       2 calls)
     electrons    :     75.85s CPU     91.81s WALL (       7 calls)
     update_pot   :      0.54s CPU      0.61s WALL (       5 calls)
     forces       :      0.84s CPU      0.88s WALL (       7 calls)
     stress       :      1.83s CPU      1.86s WALL (       7 calls)

     Called by init_run:
     wfcinit      :      0.72s CPU      0.99s WALL (       2 calls)
     wfcinit:atom :      0.01s CPU      0.01s WALL (     450 calls)
     wfcinit:wfcr :      0.67s CPU      0.93s WALL (     450 calls)
     potinit      :      0.07s CPU      0.10s WALL (       2 calls)
     hinit0       :      0.17s CPU      0.36s WALL (       2 calls)

     Called by electrons:
     c_bands      :     65.46s CPU     79.62s WALL (      75 calls)
     sum_band     :      9.64s CPU     10.53s WALL (      75 calls)
     v_of_rho     :      0.36s CPU      0.38s WALL (      79 calls)
     v_h          :      0.02s CPU      0.02s WALL (      79 calls)
     v_xc         :      0.40s CPU      0.42s WALL (      93 calls)
     newd         :      0.26s CPU      0.27s WALL (      79 calls)
     mix_rho      :      0.04s CPU      0.04s WALL (      75 calls)

     Called by c_bands:
     init_us_2    :      1.06s CPU      1.16s WALL (   37350 calls)
     cegterg      :     59.96s CPU     65.87s WALL (   16875 calls)

     Called by sum_band:
     sum_band:wei :      0.17s CPU      0.18s WALL (      75 calls)
     sum_band:loo :      9.14s CPU     10.00s WALL (      75 calls)
     sum_band:buf :      0.06s CPU      0.07s WALL (   16875 calls)
     sum_band:ini :      0.51s CPU      0.55s WALL (   16875 calls)
     sum_band:cal :      0.45s CPU      0.49s WALL (   16875 calls)
     sum_band:bec :      0.13s CPU      0.14s WALL (   16875 calls)
     addusdens    :      0.23s CPU      0.25s WALL (      75 calls)
     addusd:skk   :      0.00s CPU      0.00s WALL (     150 calls)
     addusd:dgemm :      0.09s CPU      0.11s WALL (     150 calls)
     addusd:qvan2 :      0.11s CPU      0.11s WALL (     150 calls)

     Called by *egterg:
     cdiaghg      :     10.30s CPU     11.24s WALL (   62091 calls)
     cegterg:over :      1.42s CPU      1.58s WALL (   47016 calls)
     cegterg:upda :      0.42s CPU      0.46s WALL (   47016 calls)
     cegterg:last :      0.50s CPU      0.55s WALL (   35564 calls)
     h_psi        :     45.07s CPU     49.72s WALL (   64341 calls)
     s_psi        :      0.76s CPU      0.85s WALL (   64341 calls)
     g_psi        :      0.16s CPU      0.18s WALL (   47016 calls)

     Called by h_psi:
     h_psi:calbec :      1.47s CPU      1.62s WALL (   64341 calls)
     vloc_psi     :     42.23s CPU     46.59s WALL (   64341 calls)
     add_vuspsi   :      0.79s CPU      0.87s WALL (   64341 calls)

     General routines
     calbec       :      1.89s CPU      2.07s WALL (   89091 calls)
     fft          :      0.22s CPU      0.37s WALL (    1196 calls)
     ffts         :      0.01s CPU      0.03s WALL (     154 calls)
     fftw         :     45.49s CPU     50.11s WALL ( 1320920 calls)
     interpolate  :      0.02s CPU      0.03s WALL (      79 calls)
 
     Parallel routines
 
     PWSCF        :   1m21.36s CPU   1m41.13s WALL

 
   This run was terminated on:  14: 2: 9  21Jul2022            

=------------------------------------------------------------------------------=
   JOB DONE.
=------------------------------------------------------------------------------=
