
     Program PWSCF v.6.8 starts on 27Jul2022 at 19:46:44 

     This program is part of the open-source Quantum ESPRESSO suite
     for quantum simulation of materials; please cite
         "P. Giannozzi et al., J. Phys.:Condens. Matter 21 395502 (2009);
         "P. Giannozzi et al., J. Phys.:Condens. Matter 29 465901 (2017);
         "P. Giannozzi et al., J. Chem. Phys. 152 154105 (2020);
          URL http://www.quantum-espresso.org", 
     in publications or presentations arising from this work. More details at
     http://www.quantum-espresso.org/quote

     Parallel version (MPI), running on    48 processors

     MPI processes distributed on     1 nodes
     K-points division:     npool     =       4
     R & G space division:  proc/nbgrp/npool/nimage =      12
     189141 MiB available memory on the printing compute node when the environment starts
 
     Waiting for input...
     Reading input from standard input

     Current dimensions of program PWSCF are:
     Max number of different atomic species (ntypx) = 10
     Max number of k-points (npk) =  40000
     Max angular momentum in pseudopotentials (lmaxx) =  4
     Message from routine setup:
     using ibrav=0 with symmetry is DISCOURAGED, use correct ibrav instead

     Subspace diagonalization in iterative solution of the eigenvalue problem:
     a serial algorithm will be used

 
     Parallelization info
     --------------------
     sticks:   dense  smooth     PW     G-vecs:    dense   smooth      PW
     Min         139      46     17                 3602      698     155
     Max         140      47     18                 3604      701     157
     Sum        1669     557    205                43227     8391    1865
 
     Using Slab Decomposition
 


     bravais-lattice index     =            0
     lattice parameter (alat)  =       5.5613  a.u.
     unit-cell volume          =     132.4087 (a.u.)^3
     number of atoms/cell      =            7
     number of atomic types    =            2
     number of electrons       =        16.00
     number of Kohn-Sham states=           12
     kinetic-energy cutoff     =      60.0000  Ry
     charge density cutoff     =     720.0000  Ry
     scf convergence threshold =      1.0E-09
     mixing beta               =       0.8000
     number of iterations used =            8  plain     mixing
     Exchange-correlation= SLA  PW   PBE  PBE
                           (   1   4   3   4   0   0   0)

     celldm(1)=   5.561340  celldm(2)=   0.000000  celldm(3)=   0.000000
     celldm(4)=   0.000000  celldm(5)=   0.000000  celldm(6)=   0.000000

     crystal axes: (cart. coord. in units of alat)
               a(1) = (  -0.577350   0.577350   0.577350 )  
               a(2) = (   0.577350  -0.577350   0.577350 )  
               a(3) = (   0.577350   0.577350  -0.577350 )  

     reciprocal axes: (cart. coord. in units 2 pi/alat)
               b(1) = ( -0.000000  0.866025  0.866025 )  
               b(2) = (  0.866025 -0.000000  0.866025 )  
               b(3) = (  0.866025  0.866025  0.000000 )  


     PseudoPot. # 1 for Ca read from file:
     /work/home/mayuan/code/my_script/scripts_tests/out2/200.0/pp/ca_pbe_v1.uspp.F.UPF
     MD5 check sum: 403a4c14b9e4d4dfdc3024c9a3812218
     Pseudo is Ultrasoft + core correction, Zval = 10.0
     Generated by new atomic code, or converted to UPF format
     Using radial grid of  845 points,  6 beta functions with: 
                l(1) =   0
                l(2) =   0
                l(3) =   1
                l(4) =   1
                l(5) =   2
                l(6) =   2
     Q(r) pseudized with  8 coefficients,  rinner =    1.500   1.500   1.500
                                                       1.500   1.500

     PseudoPot. # 2 for H  read from file:
     /work/home/mayuan/code/my_script/scripts_tests/out2/200.0/pp/h_pbe_v1.uspp.F.UPF
     MD5 check sum: 3408e3ff4ec8b0a4e358431e7e038a48
     Pseudo is Ultrasoft, Zval =  1.0
     Generated by new atomic code, or converted to UPF format
     Using radial grid of  615 points,  2 beta functions with: 
                l(1) =   0
                l(2) =   0
     Q(r) pseudized with  8 coefficients,  rinner =    0.700

     atomic species   valence    mass     pseudopotential
        Ca            10.00    40.07800     Ca( 1.00)
        H              1.00     1.00794     H ( 1.00)

     48 Sym. Ops., with inversion, found



   Cartesian axes

     site n.     atom                  positions (alat units)
         1           Ca  tau(   1) = (   0.0000000   0.0000000   0.0000000  )
         2           H   tau(   2) = (   0.2886751   0.0000000   0.5773503  )
         3           H   tau(   3) = (   0.2886751   0.5773503   0.0000000  )
         4           H   tau(   4) = (   0.5773503   0.2886751   0.0000000  )
         5           H   tau(   5) = (   0.0000000   0.2886751   0.5773503  )
         6           H   tau(   6) = (   0.0000000   0.5773503   0.2886751  )
         7           H   tau(   7) = (   0.5773503   0.0000000   0.2886751  )

     number of k points=    29  Methfessel-Paxton smearing, width (Ry)=  0.0200
                       cart. coord. in units 2pi/alat
        k(    1) = (   0.0000000   0.0000000   0.0000000), wk =   0.0039062
        k(    2) = (   0.1082532   0.1082532   0.0000000), wk =   0.0468750
        k(    3) = (   0.2165064   0.2165064   0.0000000), wk =   0.0468750
        k(    4) = (   0.3247595   0.3247595   0.0000000), wk =   0.0468750
        k(    5) = (  -0.4330127  -0.4330127   0.0000000), wk =   0.0234375
        k(    6) = (   0.2165064   0.1082532   0.1082532), wk =   0.0937500
        k(    7) = (   0.3247595   0.2165064   0.1082532), wk =   0.1875000
        k(    8) = (   0.4330127   0.3247595   0.1082532), wk =   0.1875000
        k(    9) = (   0.4330127   0.2165064   0.2165064), wk =   0.0937500
        k(   10) = (   0.5412659   0.3247595   0.2165064), wk =   0.0937500
        k(   11) = (   0.2165064   0.2165064   0.2165064), wk =   0.0312500
        k(   12) = (   0.3247595   0.3247595   0.2165064), wk =   0.0937500
        k(   13) = (   0.4330127   0.4330127   0.2165064), wk =   0.0468750
        k(   14) = (  -0.0000000  -0.0000000   0.2165064), wk =   0.0234375
        k(   15) = (   0.4330127   0.3247595   0.3247595), wk =   0.0937500
        k(   16) = (  -0.0000000  -0.1082532   0.3247595), wk =   0.0937500
        k(   17) = (   0.0000000  -0.2165064   0.4330127), wk =   0.0937500
        k(   18) = (   0.1082532  -0.1082532   0.4330127), wk =   0.0937500
        k(   19) = (  -0.8660254  -0.3247595  -0.3247595), wk =   0.0468750
        k(   20) = (  -0.7577722  -0.2165064  -0.3247595), wk =   0.1875000
        k(   21) = (  -0.6495191  -0.2165064  -0.2165064), wk =   0.0312500
        k(   22) = (   0.4330127   0.4330127   0.4330127), wk =   0.0078125
        k(   23) = (  -0.0000000  -0.0000000   0.4330127), wk =   0.0234375
        k(   24) = (  -0.0000000  -0.1082532   0.5412659), wk =   0.0937500
        k(   25) = (  -0.8660254  -0.2165064  -0.2165064), wk =   0.0468750
        k(   26) = (  -0.7577722  -0.1082532  -0.2165064), wk =   0.0937500
        k(   27) = (  -0.0000000  -0.0000000   0.6495191), wk =   0.0234375
        k(   28) = (  -0.8660254  -0.1082532  -0.1082532), wk =   0.0468750
        k(   29) = (  -0.8660254  -0.8660254  -0.8660254), wk =   0.0039062

     Dense  grid:    43227 G-vectors     FFT dimensions: (  48,  48,  48)

     Smooth grid:     8391 G-vectors     FFT dimensions: (  27,  27,  27)

     Estimated max dynamical RAM per process >       9.39 MB

     Estimated total dynamical RAM >     418.86 MB

     Initial potential from superposition of free atoms

     starting charge   15.99449, renormalised to   16.00000
     Starting wfcs are   16 randomized atomic wfcs

     total cpu time spent up to now is        1.6 secs

     Self-consistent Calculation

     iteration #  1     ecut=    60.00 Ry     beta= 0.80
     Davidson diagonalization with overlap
     ethr =  1.00E-02,  avg # of iterations =  2.4

     Threshold (ethr) on eigenvalues was too large:
     Diagonalizing with lowered threshold

     Davidson diagonalization with overlap
     ethr =  6.35E-04,  avg # of iterations =  1.1

     total cpu time spent up to now is        1.7 secs

     total energy              =     -81.18986394 Ry
     estimated scf accuracy    <       0.10254634 Ry

     iteration #  2     ecut=    60.00 Ry     beta= 0.80
     Davidson diagonalization with overlap
     ethr =  6.41E-04,  avg # of iterations =  2.6

     total cpu time spent up to now is        1.7 secs

     total energy              =     -81.20562789 Ry
     estimated scf accuracy    <       0.01348343 Ry

     iteration #  3     ecut=    60.00 Ry     beta= 0.80
     Davidson diagonalization with overlap
     ethr =  8.43E-05,  avg # of iterations =  2.9

     total cpu time spent up to now is        1.8 secs

     total energy              =     -81.20930995 Ry
     estimated scf accuracy    <       0.00055449 Ry

     iteration #  4     ecut=    60.00 Ry     beta= 0.80
     Davidson diagonalization with overlap
     ethr =  3.47E-06,  avg # of iterations =  3.8

     total cpu time spent up to now is        1.9 secs

     total energy              =     -81.20939249 Ry
     estimated scf accuracy    <       0.00000573 Ry

     iteration #  5     ecut=    60.00 Ry     beta= 0.80
     Davidson diagonalization with overlap
     ethr =  3.58E-08,  avg # of iterations =  2.8

     total cpu time spent up to now is        1.9 secs

     total energy              =     -81.20939452 Ry
     estimated scf accuracy    <       0.00000040 Ry

     iteration #  6     ecut=    60.00 Ry     beta= 0.80
     Davidson diagonalization with overlap
     ethr =  2.49E-09,  avg # of iterations =  2.0

     total cpu time spent up to now is        2.0 secs

     total energy              =     -81.20939455 Ry
     estimated scf accuracy    <       0.00000003 Ry

     iteration #  7     ecut=    60.00 Ry     beta= 0.80
     Davidson diagonalization with overlap
     ethr =  2.02E-10,  avg # of iterations =  2.6

     total cpu time spent up to now is        2.0 secs

     total energy              =     -81.20939456 Ry
     estimated scf accuracy    <          2.4E-09 Ry

     iteration #  8     ecut=    60.00 Ry     beta= 0.80
     Davidson diagonalization with overlap
     ethr =  1.49E-11,  avg # of iterations =  2.0

     total cpu time spent up to now is        2.1 secs

     End of self-consistent calculation

          k = 0.0000 0.0000 0.0000 (  1055 PWs)   bands (ev):

   -23.1935  -3.2788  -3.2788  -3.2788   0.1486  15.9448  15.9448  15.9448
    16.7214  16.7214  18.4476  18.4476

          k = 0.1083 0.1083 0.0000 (  1017 PWs)   bands (ev):

   -23.0995  -4.2078  -3.3779  -3.3005   1.2795  12.3315  14.4027  14.6191
    18.1338  18.9386  19.0650  20.5817

          k = 0.2165 0.2165 0.0000 (  1037 PWs)   bands (ev):

   -22.8641  -5.6002  -3.6086  -3.3561   3.1324   9.3196  12.6807  13.8556
    19.3142  20.8076  22.2189  23.9512

          k = 0.3248 0.3248 0.0000 (  1045 PWs)   bands (ev):

   -22.6156  -6.6054  -3.8279  -3.4160   4.3373   7.8701  11.5987  13.7812
    20.5314  21.8817  23.3489  25.9239

          k =-0.4330-0.4330 0.0000 (  1048 PWs)   bands (ev):

   -22.5082  -6.9688  -3.9158  -3.4420   4.5231   7.7265  11.2334  13.8917
    20.8409  20.9258  25.3526  27.3808

          k = 0.2165 0.1083 0.1083 (  1031 PWs)   bands (ev):

   -22.9345  -5.1974  -3.5618  -3.4047   2.7031  10.2092  11.9185  15.5150
    18.5308  20.2286  20.4343  24.0278

          k = 0.3248 0.2165 0.1083 (  1035 PWs)   bands (ev):

   -22.6908  -6.1663  -3.9461  -3.4989   4.3298   8.2172  10.7787  15.2963
    20.1417  21.8970  22.5839  23.2800

          k = 0.4330 0.3248 0.1083 (  1045 PWs)   bands (ev):

   -22.5104  -6.7184  -4.2368  -3.5615   5.0729   7.5821  10.2617  15.1695
    20.7256  21.5429  24.3509  26.1297

          k = 0.4330 0.2165 0.2165 (  1042 PWs)   bands (ev):

   -22.5125  -6.3656  -4.7178  -3.6094   5.7975   7.3351   9.4255  16.7076
    19.8463  22.3529  24.3073  24.4963

          k = 0.5413 0.3248 0.2165 (  1041 PWs)   bands (ev):

   -22.4371  -6.2836  -5.2098  -3.6479   6.4343   7.2799   8.7001  17.2641
    19.4432  23.6414  24.8094  24.9740

          k = 0.2165 0.2165 0.2165 (  1037 PWs)   bands (ev):

   -22.7450  -5.9628  -3.7384  -3.7384   4.1950   9.3980   9.3980  18.2432
    19.6021  19.6021  22.0074  24.9281

          k = 0.3248 0.3248 0.2165 (  1045 PWs)   bands (ev):

   -22.5486  -6.3958  -4.3539  -3.9161   5.6564   7.9193   9.0345  18.3187
    20.9959  22.5067  22.9468  23.3091

          k = 0.4330 0.4330 0.2165 (  1046 PWs)   bands (ev):

   -22.4652  -6.4993  -4.6728  -3.9898   6.1062   7.6449   8.9480  18.3342
    21.4453  21.4866  24.6136  25.0459

          k =-0.0000-0.0000 0.2165 (  1028 PWs)   bands (ev):

   -23.0111  -4.6454  -3.4892  -3.4892   2.0930  10.9866  13.9035  13.9035
    17.8408  19.0574  22.2676  22.2676

          k = 0.4330 0.3248 0.3248 (  1043 PWs)   bands (ev):

   -22.4475  -6.0935  -5.1295  -4.2686   7.0161   7.6083   8.2052  20.3587
    21.5991  22.9787  23.3695  23.7562

          k =-0.0000-0.1083 0.3248 (  1038 PWs)   bands (ev):

   -22.7907  -5.6298  -3.7466  -3.6340   3.6607   8.6514  12.8672  13.2901
    19.1704  20.4353  22.2464  24.3465

          k = 0.0000-0.2165 0.4330 (  1039 PWs)   bands (ev):

   -22.5590  -6.4370  -3.9900  -3.7261   4.8125   7.3180  12.0447  12.9342
    19.5282  22.2191  22.9070  26.1304

          k = 0.1083-0.1083 0.4330 (  1038 PWs)   bands (ev):

   -22.5802  -6.1021  -4.2645  -3.7253   4.9408   7.1512  11.5033  14.0870
    18.2829  21.9350  22.7501  26.0342

          k =-0.8660-0.3248-0.3248 (  1044 PWs)   bands (ev):

   -22.4595  -6.7364  -4.0871  -3.7662   4.9783   7.2459  11.7483  12.6621
    19.4277  23.0007  25.1666  26.6477

          k =-0.7578-0.2165-0.3248 (  1033 PWs)   bands (ev):

   -22.4260  -6.3273  -4.7490  -3.7348   5.6476   6.6542  10.4168  14.4825
    17.9982  23.8955  24.8075  26.4280

          k =-0.6495-0.2165-0.2165 (  1033 PWs)   bands (ev):

   -22.3705  -5.7073  -5.7073  -3.6892   6.3391   6.3391   9.3348  16.5556
    16.5556  24.2447  25.9888  25.9888

          k = 0.4330 0.4330 0.4330 (  1004 PWs)   bands (ev):

   -22.4214  -5.2899  -5.2899  -5.2899   7.7431   7.7431   7.7431  22.4266
    22.4266  22.7589  24.9889  24.9890

          k =-0.0000-0.0000 0.4330 (  1044 PWs)   bands (ev):

   -22.6089  -5.7800  -4.0621  -4.0621   4.6755   7.1126  13.1061  13.1061
    17.1932  20.7603  22.9199  27.0651

          k =-0.0000-0.1083 0.5413 (  1042 PWs)   bands (ev):

   -22.4206  -6.0070  -4.3559  -4.2968   5.3612   5.9690  12.7317  13.0871
    16.4772  22.4917  24.8652  27.1736

          k =-0.8660-0.2165-0.2165 (  1042 PWs)   bands (ev):

   -22.3405  -6.1079  -4.4720  -4.3729   5.2119   6.0101  12.1089  13.0269
    17.0559  24.7490  25.3231  25.7488

          k =-0.7578-0.1083-0.2165 (  1044 PWs)   bands (ev):

   -22.3055  -5.7447  -5.0222  -4.2401   5.2679   5.4475  11.7285  14.6665
    15.9596  23.9829  25.3002  26.0913

          k =-0.0000-0.0000 0.6495 (  1048 PWs)   bands (ev):

   -22.2792  -5.5430  -4.6918  -4.6918   4.7681   5.0531  14.0369  14.0369
    14.6889  22.9977  26.0359  26.0359

          k =-0.8660-0.1083-0.1083 (  1040 PWs)   bands (ev):

   -22.2197  -5.3414  -4.8235  -4.8142   4.4364   4.6238  13.7266  14.3831
    15.4929  24.3683  24.4795  25.0162

          k =-0.8660-0.8660-0.8660 (  1048 PWs)   bands (ev):

   -22.1691  -4.9608  -4.9608  -4.9608   3.9840   3.9840  14.9768  14.9768
    14.9768  24.2197  24.2197  24.2197

     the Fermi energy is    17.1559 ev

!    total energy              =     -81.20939456 Ry
     estimated scf accuracy    <          6.5E-11 Ry
     smearing contrib. (-TS)   =      -0.00019669 Ry
     internal energy E=F+TS    =     -81.20919787 Ry

     The total energy is F=E-TS. E is the sum of the following terms:
     one-electron contribution =       1.38851564 Ry
     hartree contribution      =       9.93964472 Ry
     xc contribution           =     -17.51715444 Ry
     ewald contribution        =     -75.02020379 Ry

     convergence has been achieved in   8 iterations

     Writing output data file ./tmp/Ca1H6.save/
 
     init_run     :      0.07s CPU      0.47s WALL (       1 calls)
     electrons    :      0.40s CPU      0.52s WALL (       1 calls)

     Called by init_run:
     wfcinit      :      0.02s CPU      0.12s WALL (       1 calls)
     potinit      :      0.01s CPU      0.04s WALL (       1 calls)
     hinit0       :      0.03s CPU      0.20s WALL (       1 calls)

     Called by electrons:
     c_bands      :      0.26s CPU      0.32s WALL (       9 calls)
     sum_band     :      0.08s CPU      0.09s WALL (       9 calls)
     v_of_rho     :      0.03s CPU      0.05s WALL (       9 calls)
     newd         :      0.02s CPU      0.08s WALL (       9 calls)
     mix_rho      :      0.00s CPU      0.02s WALL (       9 calls)

     Called by c_bands:
     init_us_2    :      0.00s CPU      0.00s WALL (     152 calls)
     cegterg      :      0.23s CPU      0.26s WALL (      72 calls)

     Called by *egterg:
     cdiaghg      :      0.04s CPU      0.15s WALL (     246 calls)
     h_psi        :      0.18s CPU      0.21s WALL (     262 calls)
     s_psi        :      0.00s CPU      0.00s WALL (     262 calls)
     g_psi        :      0.00s CPU      0.00s WALL (     182 calls)

     Called by h_psi:
     h_psi:calbec :      0.01s CPU      0.01s WALL (     262 calls)
     vloc_psi     :      0.17s CPU      0.19s WALL (     262 calls)
     add_vuspsi   :      0.00s CPU      0.01s WALL (     262 calls)

     General routines
     calbec       :      0.01s CPU      0.01s WALL (     334 calls)
     fft          :      0.01s CPU      0.09s WALL (     116 calls)
     ffts         :      0.00s CPU      0.01s WALL (      18 calls)
     fftw         :      0.19s CPU      0.20s WALL (    5548 calls)
     interpolate  :      0.00s CPU      0.01s WALL (       9 calls)
 
     Parallel routines
 
     PWSCF        :      0.58s CPU      2.35s WALL

 
   This run was terminated on:  19:46:47  27Jul2022            

=------------------------------------------------------------------------------=
   JOB DONE.
=------------------------------------------------------------------------------=
