
     Program PHONON v.6.8 starts on 21Jul2022 at 20: 3: 0 

     This program is part of the open-source Quantum ESPRESSO suite
     for quantum simulation of materials; please cite
         "P. Giannozzi et al., J. Phys.:Condens. Matter 21 395502 (2009);
         "P. Giannozzi et al., J. Phys.:Condens. Matter 29 465901 (2017);
         "P. Giannozzi et al., J. Chem. Phys. 152 154105 (2020);
          URL http://www.quantum-espresso.org", 
     in publications or presentations arising from this work. More details at
     http://www.quantum-espresso.org/quote

     Parallel version (MPI), running on    48 processors

     MPI processes distributed on     1 nodes
     K-points division:     npool     =       4
     R & G space division:  proc/nbgrp/npool/nimage =      12
     188805 MiB available memory on the printing compute node when the environment starts
 
     Waiting for input...
     Reading input from standard input

     Reading xml data from directory:

     ./tmp/Ca1H6.save/

     IMPORTANT: XC functional enforced from input :
     Exchange-correlation= PBE
                           (   1   4   3   4   0   0   0)
     Any further DFT definition will be discarded
     Please, verify this is what you really want

 
     Parallelization info
     --------------------
     sticks:   dense  smooth     PW     G-vecs:    dense   smooth      PW
     Min         139      46     17                 3602      698     155
     Max         140      47     18                 3604      701     157
     Sum        1669     557    205                43227     8391    1865
 
     Using Slab Decomposition
 
     Reading collected, re-writing distributed wavefunctions

     Saving dvscf to file. Distribute only q points, not irreducible represetations.

     Calculation of q =    0.2165064   0.2165064   0.2165064

     Subspace diagonalization in iterative solution of the eigenvalue problem:
     a serial algorithm will be used

 
     Parallelization info
     --------------------
     sticks:   dense  smooth     PW     G-vecs:    dense   smooth      PW
     Min         139      46     17                 3602      698     155
     Max         140      47     18                 3604      701     157
     Sum        1669     557    205                43227     8391    1865
 
     Using Slab Decomposition
 

     Title: 
     Electron-phonon coefficients for Ca1H6                                     


     bravais-lattice index     =            0
     lattice parameter (alat)  =       5.5613  a.u.
     unit-cell volume          =     132.4087 (a.u.)^3
     number of atoms/cell      =            7
     number of atomic types    =            2
     number of electrons       =        16.00
     number of Kohn-Sham states=           12
     kinetic-energy cutoff     =      60.0000  Ry
     charge density cutoff     =     720.0000  Ry
     Exchange-correlation= PBE
                           (   1   4   3   4   0   0   0)

     celldm(1)=   5.561340  celldm(2)=   0.000000  celldm(3)=   0.000000
     celldm(4)=   0.000000  celldm(5)=   0.000000  celldm(6)=   0.000000

     crystal axes: (cart. coord. in units of alat)
               a(1) = (  -0.577350   0.577350   0.577350 )  
               a(2) = (   0.577350  -0.577350   0.577350 )  
               a(3) = (   0.577350   0.577350  -0.577350 )  

     reciprocal axes: (cart. coord. in units 2 pi/alat)
               b(1) = ( -0.000000  0.866025  0.866025 )  
               b(2) = (  0.866025 -0.000000  0.866025 )  
               b(3) = (  0.866025  0.866025  0.000000 )  


     PseudoPot. # 1 for Ca read from file:
     /work/home/mayuan/code/my_script/scripts_tests/out2/200.0/pp/ca_pbe_v1.uspp.F.UPF
     MD5 check sum: 403a4c14b9e4d4dfdc3024c9a3812218
     Pseudo is Ultrasoft + core correction, Zval = 10.0
     Generated by new atomic code, or converted to UPF format
     Using radial grid of  845 points,  6 beta functions with: 
                l(1) =   0
                l(2) =   0
                l(3) =   1
                l(4) =   1
                l(5) =   2
                l(6) =   2
     Q(r) pseudized with  8 coefficients,  rinner =    1.500   1.500   1.500
                                                       1.500   1.500

     PseudoPot. # 2 for H  read from file:
     /work/home/mayuan/code/my_script/scripts_tests/out2/200.0/pp/h_pbe_v1.uspp.F.UPF
     MD5 check sum: 3408e3ff4ec8b0a4e358431e7e038a48
     Pseudo is Ultrasoft, Zval =  1.0
     Generated by new atomic code, or converted to UPF format
     Using radial grid of  615 points,  2 beta functions with: 
                l(1) =   0
                l(2) =   0
     Q(r) pseudized with  8 coefficients,  rinner =    0.700

     atomic species   valence    mass     pseudopotential
        Ca            10.00    40.07800     Ca( 1.00)
        H              1.00     1.00794     H ( 1.00)

     48 Sym. Ops., with inversion, found



   Cartesian axes

     site n.     atom                  positions (alat units)
         1           Ca  tau(   1) = (   0.0000000   0.0000000   0.0000000  )
         2           H   tau(   2) = (   0.2886751   0.0000000   0.5773503  )
         3           H   tau(   3) = (   0.2886751   0.5773503   0.0000000  )
         4           H   tau(   4) = (   0.5773503   0.2886751   0.0000000  )
         5           H   tau(   5) = (   0.0000000   0.2886751   0.5773503  )
         6           H   tau(   6) = (   0.0000000   0.5773503   0.2886751  )
         7           H   tau(   7) = (   0.5773503   0.0000000   0.2886751  )

     number of k points=  1632  Methfessel-Paxton smearing, width (Ry)=  0.0200

     Number of k-points >= 100: set verbosity='high' to print them.

     Dense  grid:    43227 G-vectors     FFT dimensions: (  48,  48,  48)

     Smooth grid:     8391 G-vectors     FFT dimensions: (  27,  27,  27)

     Estimated max dynamical RAM per process >       8.33 MB

     Estimated total dynamical RAM >     399.71 MB

     The potential is recalculated from file :
     ./tmp/_ph0/Ca1H6.save/charge-density

     Starting wfcs are   16 atomic wfcs

     Band Structure Calculation
     Davidson diagonalization with overlap

     ethr =  6.25E-11,  avg # of iterations = 14.9

     total cpu time spent up to now is       21.3 secs

     End of band structure calculation

     Number of k-points >= 100: set verbosity='high' to print the bands.

     the Fermi energy is    17.0980 ev

     Writing output data file ./tmp/_ph0/Ca1H6.save/

     Electron-phonon coefficients for Ca1H6                                     

     bravais-lattice index     =            0
     lattice parameter (alat)  =       5.5613  a.u.
     unit-cell volume          =     132.4087 (a.u.)^3
     number of atoms/cell      =            7
     number of atomic types    =            2
     kinetic-energy cut-off    =      60.0000  Ry
     charge density cut-off    =     720.0000  Ry
     convergence threshold     =      1.0E-16
     beta                      =       0.7000
     number of iterations used =            4
     Exchange-correlation= PBE
                           (   1   4   3   4   0   0   0)


     celldm(1)=    5.56134  celldm(2)=    0.00000  celldm(3)=    0.00000
     celldm(4)=    0.00000  celldm(5)=    0.00000  celldm(6)=    0.00000

     crystal axes: (cart. coord. in units of alat)
               a(1) = ( -0.5774  0.5774  0.5774 )  
               a(2) = (  0.5774 -0.5774  0.5774 )  
               a(3) = (  0.5774  0.5774 -0.5774 )  

     reciprocal axes: (cart. coord. in units 2 pi/alat)
               b(1) = ( -0.0000  0.8660  0.8660 )  
               b(2) = (  0.8660 -0.0000  0.8660 )  
               b(3) = (  0.8660  0.8660  0.0000 )  


     Atoms inside the unit cell: 

     Cartesian axes

     site n.  atom      mass           positions (alat units)
        1     Ca  40.0780   tau(    1) = (    0.00000    0.00000    0.00000  )
        2     H    1.0079   tau(    2) = (    0.28868    0.00000    0.57735  )
        3     H    1.0079   tau(    3) = (    0.28868    0.57735    0.00000  )
        4     H    1.0079   tau(    4) = (    0.57735    0.28868    0.00000  )
        5     H    1.0079   tau(    5) = (    0.00000    0.28868    0.57735  )
        6     H    1.0079   tau(    6) = (    0.00000    0.57735    0.28868  )
        7     H    1.0079   tau(    7) = (    0.57735    0.00000    0.28868  )

     Computing dynamical matrix for 
                    q = (   0.2165064   0.2165064   0.2165064 )
 
      6 Sym.Ops. (no q -> -q+G )


     G cutoff =  564.0682  (   3604 G-vectors)     FFT grid: ( 48, 48, 48)
     G cutoff =  188.0227  (    699 G-vectors)  smooth grid: ( 27, 27, 27)

     number of k points=  1632  Methfessel-Paxton smearing, width (Ry)=  0.0200

     PseudoPot. # 1 for Ca read from file:
     /work/home/mayuan/code/my_script/scripts_tests/out2/200.0/pp/ca_pbe_v1.uspp.F.UPF
     MD5 check sum: 403a4c14b9e4d4dfdc3024c9a3812218
     Pseudo is Ultrasoft + core correction, Zval = 10.0
     Generated by new atomic code, or converted to UPF format
     Using radial grid of  845 points,  6 beta functions with: 
                l(1) =   0
                l(2) =   0
                l(3) =   1
                l(4) =   1
                l(5) =   2
                l(6) =   2
     Q(r) pseudized with  8 coefficients,  rinner =    1.500   1.500   1.500
                                                       1.500   1.500

     PseudoPot. # 2 for H  read from file:
     /work/home/mayuan/code/my_script/scripts_tests/out2/200.0/pp/h_pbe_v1.uspp.F.UPF
     MD5 check sum: 3408e3ff4ec8b0a4e358431e7e038a48
     Pseudo is Ultrasoft, Zval =  1.0
     Generated by new atomic code, or converted to UPF format
     Using radial grid of  615 points,  2 beta functions with: 
                l(1) =   0
                l(2) =   0
     Q(r) pseudized with  8 coefficients,  rinner =    0.700

     Mode symmetry, C_3v (3m)   point group:


     Atomic displacements:
     There are   14 irreducible representations

     Representation     1      1 modes -  To be done

     Representation     2      1 modes -  To be done

     Representation     3      1 modes -  To be done

     Representation     4      1 modes -  To be done

     Representation     5      1 modes -  To be done

     Representation     6      1 modes -  To be done

     Representation     7      1 modes -  To be done

     Representation     8      2 modes -  To be done

     Representation     9      2 modes -  To be done

     Representation    10      2 modes -  To be done

     Representation    11      2 modes -  To be done

     Representation    12      2 modes -  To be done

     Representation    13      2 modes -  To be done

     Representation    14      2 modes -  To be done



     Alpha used in Ewald sum =   2.8000
     PHONON       :     28.34s CPU     33.39s WALL



     Representation #   1 mode #   1

     Self-consistent Calculation

      iter #   1 total cpu time :    39.9 secs   av.it.:   4.6
      thresh= 1.000E-02 alpha_mix =  0.700 |ddv_scf|^2 =  9.583E-05

      iter #   2 total cpu time :    53.6 secs   av.it.:   8.6
      thresh= 9.789E-04 alpha_mix =  0.700 |ddv_scf|^2 =  1.683E-03

      iter #   3 total cpu time :    68.8 secs   av.it.:   7.0
      thresh= 4.102E-03 alpha_mix =  0.700 |ddv_scf|^2 =  4.109E-08

      iter #   4 total cpu time :    84.8 secs   av.it.:   9.3
      thresh= 2.027E-05 alpha_mix =  0.700 |ddv_scf|^2 =  4.987E-09

      iter #   5 total cpu time :   101.4 secs   av.it.:   9.1
      thresh= 7.062E-06 alpha_mix =  0.700 |ddv_scf|^2 =  1.404E-11

      iter #   6 total cpu time :   117.0 secs   av.it.:   9.3
      thresh= 3.747E-07 alpha_mix =  0.700 |ddv_scf|^2 =  1.477E-12

      iter #   7 total cpu time :   133.9 secs   av.it.:   9.3
      thresh= 1.215E-07 alpha_mix =  0.700 |ddv_scf|^2 =  8.118E-12

      iter #   8 total cpu time :   149.0 secs   av.it.:   7.5
      thresh= 2.849E-07 alpha_mix =  0.700 |ddv_scf|^2 =  6.402E-14

      iter #   9 total cpu time :   169.0 secs   av.it.:   9.1
      thresh= 2.530E-08 alpha_mix =  0.700 |ddv_scf|^2 =  1.281E-13

      iter #  10 total cpu time :   185.9 secs   av.it.:   7.4
      thresh= 3.579E-08 alpha_mix =  0.700 |ddv_scf|^2 =  1.642E-15

      iter #  11 total cpu time :   201.3 secs   av.it.:   8.5
      thresh= 4.052E-09 alpha_mix =  0.700 |ddv_scf|^2 =  5.153E-17

     End of self-consistent calculation

     Convergence has been achieved 


     Representation #   2 mode #   2

     Self-consistent Calculation

      iter #   1 total cpu time :   214.1 secs   av.it.:   4.1
      thresh= 1.000E-02 alpha_mix =  0.700 |ddv_scf|^2 =  1.455E-05

      iter #   2 total cpu time :   224.3 secs   av.it.:   8.7
      thresh= 3.814E-04 alpha_mix =  0.700 |ddv_scf|^2 =  2.569E-04

      iter #   3 total cpu time :   235.6 secs   av.it.:   7.0
      thresh= 1.603E-03 alpha_mix =  0.700 |ddv_scf|^2 =  1.111E-08

      iter #   4 total cpu time :   246.9 secs   av.it.:   9.6
      thresh= 1.054E-05 alpha_mix =  0.700 |ddv_scf|^2 =  1.271E-09

      iter #   5 total cpu time :   258.2 secs   av.it.:   9.3
      thresh= 3.565E-06 alpha_mix =  0.700 |ddv_scf|^2 =  1.380E-11

      iter #   6 total cpu time :   271.6 secs   av.it.:   9.6
      thresh= 3.714E-07 alpha_mix =  0.700 |ddv_scf|^2 =  1.369E-11

      iter #   7 total cpu time :   284.5 secs   av.it.:   8.0
      thresh= 3.700E-07 alpha_mix =  0.700 |ddv_scf|^2 =  1.356E-11

      iter #   8 total cpu time :   296.8 secs   av.it.:   8.0
      thresh= 3.682E-07 alpha_mix =  0.700 |ddv_scf|^2 =  7.207E-12

      iter #   9 total cpu time :   311.9 secs   av.it.:   7.5
      thresh= 2.685E-07 alpha_mix =  0.700 |ddv_scf|^2 =  9.535E-14

      iter #  10 total cpu time :   326.1 secs   av.it.:   8.9
      thresh= 3.088E-08 alpha_mix =  0.700 |ddv_scf|^2 =  2.334E-15

      iter #  11 total cpu time :   340.5 secs   av.it.:   9.4
      thresh= 4.831E-09 alpha_mix =  0.700 |ddv_scf|^2 =  4.259E-16

      iter #  12 total cpu time :   356.0 secs   av.it.:   9.4
      thresh= 2.064E-09 alpha_mix =  0.700 |ddv_scf|^2 =  5.622E-17

     End of self-consistent calculation

     Convergence has been achieved 


     Representation #   3 mode #   3

     Self-consistent Calculation

      iter #   1 total cpu time :   367.5 secs   av.it.:   7.0
      thresh= 1.000E-02 alpha_mix =  0.700 |ddv_scf|^2 =  2.106E-03

      iter #   2 total cpu time :   377.9 secs   av.it.:   8.7
      thresh= 4.589E-03 alpha_mix =  0.700 |ddv_scf|^2 =  3.765E-02

      iter #   3 total cpu time :   391.6 secs   av.it.:   7.7
      thresh= 1.000E-02 alpha_mix =  0.700 |ddv_scf|^2 =  2.492E-06

      iter #   4 total cpu time :   404.5 secs   av.it.:   9.3
      thresh= 1.579E-04 alpha_mix =  0.700 |ddv_scf|^2 =  1.949E-07

      iter #   5 total cpu time :   418.8 secs   av.it.:   9.0
      thresh= 4.415E-05 alpha_mix =  0.700 |ddv_scf|^2 =  3.930E-09

      iter #   6 total cpu time :   432.5 secs   av.it.:   8.6
      thresh= 6.269E-06 alpha_mix =  0.700 |ddv_scf|^2 =  1.389E-10

      iter #   7 total cpu time :   445.9 secs   av.it.:   8.7
      thresh= 1.178E-06 alpha_mix =  0.700 |ddv_scf|^2 =  8.658E-13

      iter #   8 total cpu time :   457.4 secs   av.it.:   8.0
      thresh= 9.305E-08 alpha_mix =  0.700 |ddv_scf|^2 =  1.750E-14

      iter #   9 total cpu time :   469.3 secs   av.it.:   8.3
      thresh= 1.323E-08 alpha_mix =  0.700 |ddv_scf|^2 =  3.829E-17

     End of self-consistent calculation

     Convergence has been achieved 


     Representation #   4 mode #   4

     Self-consistent Calculation

      iter #   1 total cpu time :   480.0 secs   av.it.:   4.3
      thresh= 1.000E-02 alpha_mix =  0.700 |ddv_scf|^2 =  1.089E-05

      iter #   2 total cpu time :   489.3 secs   av.it.:   8.8
      thresh= 3.300E-04 alpha_mix =  0.700 |ddv_scf|^2 =  1.836E-04

      iter #   3 total cpu time :   498.6 secs   av.it.:   7.0
      thresh= 1.355E-03 alpha_mix =  0.700 |ddv_scf|^2 =  7.815E-08

      iter #   4 total cpu time :   509.3 secs   av.it.:   9.3
      thresh= 2.796E-05 alpha_mix =  0.700 |ddv_scf|^2 =  1.641E-09

      iter #   5 total cpu time :   522.0 secs   av.it.:   9.3
      thresh= 4.051E-06 alpha_mix =  0.700 |ddv_scf|^2 =  2.307E-11

      iter #   6 total cpu time :   532.7 secs   av.it.:   9.4
      thresh= 4.803E-07 alpha_mix =  0.700 |ddv_scf|^2 =  3.775E-11

      iter #   7 total cpu time :   544.0 secs   av.it.:   7.6
      thresh= 6.144E-07 alpha_mix =  0.700 |ddv_scf|^2 =  2.477E-11

      iter #   8 total cpu time :   556.2 secs   av.it.:   7.9
      thresh= 4.977E-07 alpha_mix =  0.700 |ddv_scf|^2 =  3.918E-13

      iter #   9 total cpu time :   570.5 secs   av.it.:   8.9
      thresh= 6.260E-08 alpha_mix =  0.700 |ddv_scf|^2 =  2.804E-12

      iter #  10 total cpu time :   584.3 secs   av.it.:   7.3
      thresh= 1.675E-07 alpha_mix =  0.700 |ddv_scf|^2 =  2.813E-15

      iter #  11 total cpu time :   596.8 secs   av.it.:   9.2
      thresh= 5.303E-09 alpha_mix =  0.700 |ddv_scf|^2 =  2.111E-16

      iter #  12 total cpu time :   610.4 secs   av.it.:   9.4
      thresh= 1.453E-09 alpha_mix =  0.700 |ddv_scf|^2 =  3.028E-17

     End of self-consistent calculation

     Convergence has been achieved 


     Representation #   5 mode #   5

     Self-consistent Calculation

      iter #   1 total cpu time :   621.4 secs   av.it.:   3.0
      thresh= 1.000E-02 alpha_mix =  0.700 |ddv_scf|^2 =  1.244E-08

      iter #   2 total cpu time :   631.6 secs   av.it.:   8.8
      thresh= 1.115E-05 alpha_mix =  0.700 |ddv_scf|^2 =  4.753E-10

      iter #   3 total cpu time :   642.0 secs   av.it.:   8.2
      thresh= 2.180E-06 alpha_mix =  0.700 |ddv_scf|^2 =  4.035E-11

      iter #   4 total cpu time :   653.2 secs   av.it.:   7.9
      thresh= 6.352E-07 alpha_mix =  0.700 |ddv_scf|^2 =  3.615E-14

      iter #   5 total cpu time :   665.6 secs   av.it.:   8.7
      thresh= 1.901E-08 alpha_mix =  0.700 |ddv_scf|^2 =  5.042E-16

      iter #   6 total cpu time :   676.9 secs   av.it.:   8.7
      thresh= 2.246E-09 alpha_mix =  0.700 |ddv_scf|^2 =  4.690E-18

     End of self-consistent calculation

     Convergence has been achieved 


     Representation #   6 mode #   6

     Self-consistent Calculation

      iter #   1 total cpu time :   688.3 secs   av.it.:   3.2
      thresh= 1.000E-02 alpha_mix =  0.700 |ddv_scf|^2 =  1.911E-08

      iter #   2 total cpu time :   699.3 secs   av.it.:   8.7
      thresh= 1.382E-05 alpha_mix =  0.700 |ddv_scf|^2 =  5.540E-10

      iter #   3 total cpu time :   709.6 secs   av.it.:   8.4
      thresh= 2.354E-06 alpha_mix =  0.700 |ddv_scf|^2 =  4.911E-11

      iter #   4 total cpu time :   720.2 secs   av.it.:   8.2
      thresh= 7.008E-07 alpha_mix =  0.700 |ddv_scf|^2 =  4.808E-14

      iter #   5 total cpu time :   731.3 secs   av.it.:   8.8
      thresh= 2.193E-08 alpha_mix =  0.700 |ddv_scf|^2 =  4.294E-16

      iter #   6 total cpu time :   742.5 secs   av.it.:   8.5
      thresh= 2.072E-09 alpha_mix =  0.700 |ddv_scf|^2 =  9.235E-18

     End of self-consistent calculation

     Convergence has been achieved 


     Representation #   7 mode #   7

     Self-consistent Calculation

      iter #   1 total cpu time :   754.5 secs   av.it.:   3.3
      thresh= 1.000E-02 alpha_mix =  0.700 |ddv_scf|^2 =  2.913E-08

      iter #   2 total cpu time :   763.9 secs   av.it.:   8.7
      thresh= 1.707E-05 alpha_mix =  0.700 |ddv_scf|^2 =  6.782E-10

      iter #   3 total cpu time :   773.5 secs   av.it.:   8.5
      thresh= 2.604E-06 alpha_mix =  0.700 |ddv_scf|^2 =  5.323E-11

      iter #   4 total cpu time :   782.4 secs   av.it.:   8.1
      thresh= 7.296E-07 alpha_mix =  0.700 |ddv_scf|^2 =  4.318E-14

      iter #   5 total cpu time :   793.7 secs   av.it.:   8.8
      thresh= 2.078E-08 alpha_mix =  0.700 |ddv_scf|^2 =  4.420E-16

      iter #   6 total cpu time :   803.8 secs   av.it.:   8.6
      thresh= 2.102E-09 alpha_mix =  0.700 |ddv_scf|^2 =  6.898E-18

     End of self-consistent calculation

     Convergence has been achieved 


     Representation #   8 modes #   8   9

     Self-consistent Calculation

      iter #   1 total cpu time :   824.2 secs   av.it.:   3.8
      thresh= 1.000E-02 alpha_mix =  0.700 |ddv_scf|^2 =  2.471E-08

      iter #   2 total cpu time :   844.1 secs   av.it.:  10.3
      thresh= 1.572E-05 alpha_mix =  0.700 |ddv_scf|^2 =  4.480E-09

      iter #   3 total cpu time :   861.8 secs   av.it.:  10.1
      thresh= 6.693E-06 alpha_mix =  0.700 |ddv_scf|^2 =  7.609E-11

      iter #   4 total cpu time :   882.8 secs   av.it.:  10.3
      thresh= 8.723E-07 alpha_mix =  0.700 |ddv_scf|^2 =  2.683E-12

      iter #   5 total cpu time :   905.6 secs   av.it.:  10.5
      thresh= 1.638E-07 alpha_mix =  0.700 |ddv_scf|^2 =  8.432E-14

      iter #   6 total cpu time :   925.5 secs   av.it.:  10.4
      thresh= 2.904E-08 alpha_mix =  0.700 |ddv_scf|^2 =  6.520E-16

      iter #   7 total cpu time :   942.1 secs   av.it.:  10.2
      thresh= 2.553E-09 alpha_mix =  0.700 |ddv_scf|^2 =  2.058E-17

     End of self-consistent calculation

     Convergence has been achieved 


     Representation #   9 modes #  10  11

     Self-consistent Calculation

      iter #   1 total cpu time :   969.3 secs   av.it.:   3.9
      thresh= 1.000E-02 alpha_mix =  0.700 |ddv_scf|^2 =  3.830E-08

      iter #   2 total cpu time :   987.9 secs   av.it.:  10.4
      thresh= 1.957E-05 alpha_mix =  0.700 |ddv_scf|^2 =  7.827E-09

      iter #   3 total cpu time :  1008.4 secs   av.it.:  10.1
      thresh= 8.847E-06 alpha_mix =  0.700 |ddv_scf|^2 =  6.977E-11

      iter #   4 total cpu time :  1027.3 secs   av.it.:  10.2
      thresh= 8.353E-07 alpha_mix =  0.700 |ddv_scf|^2 =  1.576E-12

      iter #   5 total cpu time :  1048.3 secs   av.it.:  10.3
      thresh= 1.255E-07 alpha_mix =  0.700 |ddv_scf|^2 =  4.816E-14

      iter #   6 total cpu time :  1067.5 secs   av.it.:  10.5
      thresh= 2.195E-08 alpha_mix =  0.700 |ddv_scf|^2 =  6.712E-16

      iter #   7 total cpu time :  1086.7 secs   av.it.:  10.5
      thresh= 2.591E-09 alpha_mix =  0.700 |ddv_scf|^2 =  2.101E-17

     End of self-consistent calculation

     Convergence has been achieved 


     Representation #  10 modes #  12  13

     Self-consistent Calculation

      iter #   1 total cpu time :  1111.1 secs   av.it.:   3.8
      thresh= 1.000E-02 alpha_mix =  0.700 |ddv_scf|^2 =  2.089E-08

      iter #   2 total cpu time :  1130.7 secs   av.it.:  10.3
      thresh= 1.445E-05 alpha_mix =  0.700 |ddv_scf|^2 =  3.433E-09

      iter #   3 total cpu time :  1150.0 secs   av.it.:  10.1
      thresh= 5.859E-06 alpha_mix =  0.700 |ddv_scf|^2 =  8.750E-11

      iter #   4 total cpu time :  1168.9 secs   av.it.:  10.0
      thresh= 9.354E-07 alpha_mix =  0.700 |ddv_scf|^2 =  1.693E-12

      iter #   5 total cpu time :  1188.5 secs   av.it.:   9.9
      thresh= 1.301E-07 alpha_mix =  0.700 |ddv_scf|^2 =  1.864E-14

      iter #   6 total cpu time :  1208.3 secs   av.it.:  10.4
      thresh= 1.365E-08 alpha_mix =  0.700 |ddv_scf|^2 =  5.572E-16

      iter #   7 total cpu time :  1227.0 secs   av.it.:  10.6
      thresh= 2.361E-09 alpha_mix =  0.700 |ddv_scf|^2 =  1.922E-17

     End of self-consistent calculation

     Convergence has been achieved 


     Representation #  11 modes #  14  15

     Self-consistent Calculation

      iter #   1 total cpu time :  1254.0 secs   av.it.:   6.5
      thresh= 1.000E-02 alpha_mix =  0.700 |ddv_scf|^2 =  3.360E-06

      iter #   2 total cpu time :  1276.4 secs   av.it.:  10.4
      thresh= 1.833E-04 alpha_mix =  0.700 |ddv_scf|^2 =  7.691E-07

      iter #   3 total cpu time :  1296.4 secs   av.it.:  10.0
      thresh= 8.770E-05 alpha_mix =  0.700 |ddv_scf|^2 =  3.032E-09

      iter #   4 total cpu time :  1315.1 secs   av.it.:  10.3
      thresh= 5.507E-06 alpha_mix =  0.700 |ddv_scf|^2 =  1.316E-10

      iter #   5 total cpu time :  1337.3 secs   av.it.:   9.9
      thresh= 1.147E-06 alpha_mix =  0.700 |ddv_scf|^2 =  6.352E-13

      iter #   6 total cpu time :  1357.4 secs   av.it.:  10.1
      thresh= 7.970E-08 alpha_mix =  0.700 |ddv_scf|^2 =  5.385E-15

      iter #   7 total cpu time :  1376.0 secs   av.it.:   9.7
      thresh= 7.338E-09 alpha_mix =  0.700 |ddv_scf|^2 =  2.212E-16

      iter #   8 total cpu time :  1394.6 secs   av.it.:  10.0
      thresh= 1.487E-09 alpha_mix =  0.700 |ddv_scf|^2 =  1.585E-18

     End of self-consistent calculation

     Convergence has been achieved 


     Representation #  12 modes #  16  17

     Self-consistent Calculation

      iter #   1 total cpu time :  1422.6 secs   av.it.:   4.0
      thresh= 1.000E-02 alpha_mix =  0.700 |ddv_scf|^2 =  3.606E-08

      iter #   2 total cpu time :  1443.0 secs   av.it.:  10.2
      thresh= 1.899E-05 alpha_mix =  0.700 |ddv_scf|^2 =  5.168E-09

      iter #   3 total cpu time :  1462.5 secs   av.it.:  10.0
      thresh= 7.189E-06 alpha_mix =  0.700 |ddv_scf|^2 =  1.533E-10

      iter #   4 total cpu time :  1484.2 secs   av.it.:  10.1
      thresh= 1.238E-06 alpha_mix =  0.700 |ddv_scf|^2 =  2.709E-12

      iter #   5 total cpu time :  1503.0 secs   av.it.:  10.3
      thresh= 1.646E-07 alpha_mix =  0.700 |ddv_scf|^2 =  1.000E-13

      iter #   6 total cpu time :  1525.5 secs   av.it.:  10.4
      thresh= 3.163E-08 alpha_mix =  0.700 |ddv_scf|^2 =  2.122E-15

      iter #   7 total cpu time :  1543.9 secs   av.it.:  10.3
      thresh= 4.607E-09 alpha_mix =  0.700 |ddv_scf|^2 =  3.083E-17

     End of self-consistent calculation

     Convergence has been achieved 


     Representation #  13 modes #  18  19

     Self-consistent Calculation

      iter #   1 total cpu time :  1576.3 secs   av.it.:   3.9
      thresh= 1.000E-02 alpha_mix =  0.700 |ddv_scf|^2 =  1.590E-08

      iter #   2 total cpu time :  1597.3 secs   av.it.:  10.4
      thresh= 1.261E-05 alpha_mix =  0.700 |ddv_scf|^2 =  1.966E-09

      iter #   3 total cpu time :  1620.0 secs   av.it.:  10.3
      thresh= 4.434E-06 alpha_mix =  0.700 |ddv_scf|^2 =  1.211E-10

      iter #   4 total cpu time :  1637.7 secs   av.it.:  10.0
      thresh= 1.101E-06 alpha_mix =  0.700 |ddv_scf|^2 =  1.830E-12

      iter #   5 total cpu time :  1659.6 secs   av.it.:  10.4
      thresh= 1.353E-07 alpha_mix =  0.700 |ddv_scf|^2 =  7.720E-14

      iter #   6 total cpu time :  1679.9 secs   av.it.:  10.3
      thresh= 2.778E-08 alpha_mix =  0.700 |ddv_scf|^2 =  8.624E-16

      iter #   7 total cpu time :  1697.9 secs   av.it.:  10.3
      thresh= 2.937E-09 alpha_mix =  0.700 |ddv_scf|^2 =  2.228E-17

     End of self-consistent calculation

     Convergence has been achieved 


     Representation #  14 modes #  20  21

     Self-consistent Calculation

      iter #   1 total cpu time :  1724.9 secs   av.it.:   4.0
      thresh= 1.000E-02 alpha_mix =  0.700 |ddv_scf|^2 =  5.517E-08

      iter #   2 total cpu time :  1744.7 secs   av.it.:  10.1
      thresh= 2.349E-05 alpha_mix =  0.700 |ddv_scf|^2 =  1.170E-08

      iter #   3 total cpu time :  1766.6 secs   av.it.:   9.9
      thresh= 1.082E-05 alpha_mix =  0.700 |ddv_scf|^2 =  8.062E-11

      iter #   4 total cpu time :  1791.5 secs   av.it.:  10.1
      thresh= 8.979E-07 alpha_mix =  0.700 |ddv_scf|^2 =  1.947E-12

      iter #   5 total cpu time :  1812.9 secs   av.it.:  10.3
      thresh= 1.395E-07 alpha_mix =  0.700 |ddv_scf|^2 =  7.203E-14

      iter #   6 total cpu time :  1833.1 secs   av.it.:  10.3
      thresh= 2.684E-08 alpha_mix =  0.700 |ddv_scf|^2 =  7.331E-16

      iter #   7 total cpu time :  1853.3 secs   av.it.:  10.2
      thresh= 2.708E-09 alpha_mix =  0.700 |ddv_scf|^2 =  2.241E-17

     End of self-consistent calculation

     Convergence has been achieved 
 
     Number of q in the star =    8
     List of q in the star:
          1   0.216506400   0.216506400   0.216506400
          2   0.216506400  -0.216506400   0.216506400
          3  -0.216506400   0.216506400   0.216506400
          4  -0.216506400  -0.216506400  -0.216506400
          5   0.216506400   0.216506400  -0.216506400
          6  -0.216506400  -0.216506400   0.216506400
          7  -0.216506400   0.216506400  -0.216506400
          8   0.216506400  -0.216506400  -0.216506400

     Diagonalizing the dynamical matrix

     q = (    0.216506400   0.216506400   0.216506400 ) 

 **************************************************************************
     freq (    1) =       8.088213 [THz] =     269.793761 [cm-1]
     freq (    2) =       8.088213 [THz] =     269.793761 [cm-1]
     freq (    3) =      13.111189 [THz] =     437.342184 [cm-1]
     freq (    4) =      26.251385 [THz] =     875.651962 [cm-1]
     freq (    5) =      26.251385 [THz] =     875.651962 [cm-1]
     freq (    6) =      32.771009 [THz] =    1093.123193 [cm-1]
     freq (    7) =      32.771009 [THz] =    1093.123193 [cm-1]
     freq (    8) =      36.324736 [THz] =    1211.662772 [cm-1]
     freq (    9) =      39.374640 [THz] =    1313.396631 [cm-1]
     freq (   10) =      39.374640 [THz] =    1313.396631 [cm-1]
     freq (   11) =      42.677637 [THz] =    1423.572733 [cm-1]
     freq (   12) =      42.930027 [THz] =    1431.991552 [cm-1]
     freq (   13) =      43.005268 [THz] =    1434.501320 [cm-1]
     freq (   14) =      43.005268 [THz] =    1434.501320 [cm-1]
     freq (   15) =      44.330185 [THz] =    1478.695792 [cm-1]
     freq (   16) =      45.084814 [THz] =    1503.867516 [cm-1]
     freq (   17) =      48.468422 [THz] =    1616.732543 [cm-1]
     freq (   18) =      48.468422 [THz] =    1616.732543 [cm-1]
     freq (   19) =      51.499097 [THz] =    1717.824986 [cm-1]
     freq (   20) =      58.237565 [THz] =    1942.596059 [cm-1]
     freq (   21) =      58.237565 [THz] =    1942.596059 [cm-1]
 **************************************************************************

     Mode symmetry, C_3v (3m)   point group:

     freq (   1-   2) =        269.8  [cm-1]   --> E    L_3           
     freq (   3-   3) =        437.3  [cm-1]   --> A_1  L_1           
     freq (   4-   5) =        875.7  [cm-1]   --> E    L_3           
     freq (   6-   7) =       1093.1  [cm-1]   --> E    L_3           
     freq (   8-   8) =       1211.7  [cm-1]   --> A_1  L_1           
     freq (   9-  10) =       1313.4  [cm-1]   --> E    L_3           
     freq (  11-  11) =       1423.6  [cm-1]   --> A_2  L_2           
     freq (  12-  12) =       1432.0  [cm-1]   --> A_1  L_1           
     freq (  13-  14) =       1434.5  [cm-1]   --> E    L_3           
     freq (  15-  15) =       1478.7  [cm-1]   --> A_1  L_1           
     freq (  16-  16) =       1503.9  [cm-1]   --> A_2  L_2           
     freq (  17-  18) =       1616.7  [cm-1]   --> E    L_3           
     freq (  19-  19) =       1717.8  [cm-1]   --> A_2  L_2           
     freq (  20-  21) =       1942.6  [cm-1]   --> E    L_3           
     electron-phonon interaction  ...

     Gaussian Broadening:   0.005 Ry, ngauss=   0
     DOS =  1.900675 states/spin/Ry/Unit Cell at Ef= 17.155196 eV
     lambda(    1)=  0.0194   gamma=    2.31 GHz
     lambda(    2)=  0.0194   gamma=    2.31 GHz
     lambda(    3)=  0.0294   gamma=    9.17 GHz
     lambda(    4)=  0.7692   gamma=  962.12 GHz
     lambda(    5)=  0.7691   gamma=  961.95 GHz
     lambda(    6)=  0.0792   gamma=  154.38 GHz
     lambda(    7)=  0.0792   gamma=  154.38 GHz
     lambda(    8)=  0.0822   gamma=  196.96 GHz
     lambda(    9)=  0.0037   gamma=   10.51 GHz
     lambda(   10)=  0.0037   gamma=   10.51 GHz
     lambda(   11)=  0.0064   gamma=   21.04 GHz
     lambda(   12)=  0.0034   gamma=   11.25 GHz
     lambda(   13)=  0.0056   gamma=   18.87 GHz
     lambda(   14)=  0.0056   gamma=   18.86 GHz
     lambda(   15)=  0.0528   gamma=  188.48 GHz
     lambda(   16)=  0.0070   gamma=   25.88 GHz
     lambda(   17)=  0.0059   gamma=   25.25 GHz
     lambda(   18)=  0.0059   gamma=   25.25 GHz
     lambda(   19)=  0.0002   gamma=    1.08 GHz
     lambda(   20)=  0.0269   gamma=  165.77 GHz
     lambda(   21)=  0.0269   gamma=  165.77 GHz
     Gaussian Broadening:   0.010 Ry, ngauss=   0
     DOS =  2.130656 states/spin/Ry/Unit Cell at Ef= 17.149400 eV
     lambda(    1)=  0.0805   gamma=   10.71 GHz
     lambda(    2)=  0.0804   gamma=   10.70 GHz
     lambda(    3)=  0.0171   gamma=    5.97 GHz
     lambda(    4)=  0.6235   gamma=  874.17 GHz
     lambda(    5)=  0.6138   gamma=  860.69 GHz
     lambda(    6)=  0.1815   gamma=  396.58 GHz
     lambda(    7)=  0.1817   gamma=  397.11 GHz
     lambda(    8)=  0.0578   gamma=  155.08 GHz
     lambda(    9)=  0.0103   gamma=   32.38 GHz
     lambda(   10)=  0.0103   gamma=   32.38 GHz
     lambda(   11)=  0.0041   gamma=   15.30 GHz
     lambda(   12)=  0.0027   gamma=   10.18 GHz
     lambda(   13)=  0.0042   gamma=   15.62 GHz
     lambda(   14)=  0.0041   gamma=   15.54 GHz
     lambda(   15)=  0.0276   gamma=  110.19 GHz
     lambda(   16)=  0.0046   gamma=   19.06 GHz
     lambda(   17)=  0.0043   gamma=   20.54 GHz
     lambda(   18)=  0.0043   gamma=   20.45 GHz
     lambda(   19)=  0.0014   gamma=    7.75 GHz
     lambda(   20)=  0.0180   gamma=  124.30 GHz
     lambda(   21)=  0.0180   gamma=  124.28 GHz
     Gaussian Broadening:   0.015 Ry, ngauss=   0
     DOS =  2.235086 states/spin/Ry/Unit Cell at Ef= 17.146382 eV
     lambda(    1)=  0.1016   gamma=   14.19 GHz
     lambda(    2)=  0.1015   gamma=   14.18 GHz
     lambda(    3)=  0.0152   gamma=    5.58 GHz
     lambda(    4)=  0.5772   gamma=  849.04 GHz
     lambda(    5)=  0.5639   gamma=  829.41 GHz
     lambda(    6)=  0.2449   gamma=  561.33 GHz
     lambda(    7)=  0.2452   gamma=  562.09 GHz
     lambda(    8)=  0.0602   gamma=  169.63 GHz
     lambda(    9)=  0.0159   gamma=   52.49 GHz
     lambda(   10)=  0.0159   gamma=   52.50 GHz
     lambda(   11)=  0.0039   gamma=   15.10 GHz
     lambda(   12)=  0.0036   gamma=   14.24 GHz
     lambda(   13)=  0.0046   gamma=   18.27 GHz
     lambda(   14)=  0.0046   gamma=   18.16 GHz
     lambda(   15)=  0.0189   gamma=   79.31 GHz
     lambda(   16)=  0.0038   gamma=   16.38 GHz
     lambda(   17)=  0.0042   gamma=   21.20 GHz
     lambda(   18)=  0.0042   gamma=   21.06 GHz
     lambda(   19)=  0.0022   gamma=   12.52 GHz
     lambda(   20)=  0.0164   gamma=  118.95 GHz
     lambda(   21)=  0.0164   gamma=  118.92 GHz
     Gaussian Broadening:   0.020 Ry, ngauss=   0
     DOS =  2.290454 states/spin/Ry/Unit Cell at Ef= 17.145317 eV
     lambda(    1)=  0.1061   gamma=   15.18 GHz
     lambda(    2)=  0.1060   gamma=   15.17 GHz
     lambda(    3)=  0.0139   gamma=    5.23 GHz
     lambda(    4)=  0.5377   gamma=  810.54 GHz
     lambda(    5)=  0.5258   gamma=  792.56 GHz
     lambda(    6)=  0.2737   gamma=  642.89 GHz
     lambda(    7)=  0.2740   gamma=  643.59 GHz
     lambda(    8)=  0.0586   gamma=  168.99 GHz
     lambda(    9)=  0.0183   gamma=   62.18 GHz
     lambda(   10)=  0.0183   gamma=   62.18 GHz
     lambda(   11)=  0.0046   gamma=   18.14 GHz
     lambda(   12)=  0.0042   gamma=   16.87 GHz
     lambda(   13)=  0.0052   gamma=   20.92 GHz
     lambda(   14)=  0.0051   gamma=   20.82 GHz
     lambda(   15)=  0.0149   gamma=   64.22 GHz
     lambda(   16)=  0.0036   gamma=   16.10 GHz
     lambda(   17)=  0.0044   gamma=   22.44 GHz
     lambda(   18)=  0.0043   gamma=   22.32 GHz
     lambda(   19)=  0.0028   gamma=   16.24 GHz
     lambda(   20)=  0.0162   gamma=  120.30 GHz
     lambda(   21)=  0.0162   gamma=  120.28 GHz
     Gaussian Broadening:   0.025 Ry, ngauss=   0
     DOS =  2.332190 states/spin/Ry/Unit Cell at Ef= 17.144758 eV
     lambda(    1)=  0.1075   gamma=   15.67 GHz
     lambda(    2)=  0.1075   gamma=   15.66 GHz
     lambda(    3)=  0.0135   gamma=    5.17 GHz
     lambda(    4)=  0.5207   gamma=  799.20 GHz
     lambda(    5)=  0.5114   gamma=  784.85 GHz
     lambda(    6)=  0.2880   gamma=  688.89 GHz
     lambda(    7)=  0.2883   gamma=  689.45 GHz
     lambda(    8)=  0.0584   gamma=  171.59 GHz
     lambda(    9)=  0.0197   gamma=   68.11 GHz
     lambda(   10)=  0.0197   gamma=   68.12 GHz
     lambda(   11)=  0.0052   gamma=   21.26 GHz
     lambda(   12)=  0.0044   gamma=   17.99 GHz
     lambda(   13)=  0.0056   gamma=   23.10 GHz
     lambda(   14)=  0.0056   gamma=   23.02 GHz
     lambda(   15)=  0.0136   gamma=   59.46 GHz
     lambda(   16)=  0.0037   gamma=   16.63 GHz
     lambda(   17)=  0.0046   gamma=   24.19 GHz
     lambda(   18)=  0.0046   gamma=   24.09 GHz
     lambda(   19)=  0.0033   gamma=   19.58 GHz
     lambda(   20)=  0.0167   gamma=  125.79 GHz
     lambda(   21)=  0.0167   gamma=  125.77 GHz
     Gaussian Broadening:   0.030 Ry, ngauss=   0
     DOS =  2.360595 states/spin/Ry/Unit Cell at Ef= 17.144134 eV
     lambda(    1)=  0.1080   gamma=   15.93 GHz
     lambda(    2)=  0.1080   gamma=   15.93 GHz
     lambda(    3)=  0.0134   gamma=    5.20 GHz
     lambda(    4)=  0.5107   gamma=  793.32 GHz
     lambda(    5)=  0.5037   gamma=  782.48 GHz
     lambda(    6)=  0.2934   gamma=  710.30 GHz
     lambda(    7)=  0.2936   gamma=  710.71 GHz
     lambda(    8)=  0.0596   gamma=  177.15 GHz
     lambda(    9)=  0.0206   gamma=   72.01 GHz
     lambda(   10)=  0.0206   gamma=   72.02 GHz
     lambda(   11)=  0.0056   gamma=   23.16 GHz
     lambda(   12)=  0.0044   gamma=   18.40 GHz
     lambda(   13)=  0.0059   gamma=   24.47 GHz
     lambda(   14)=  0.0059   gamma=   24.41 GHz
     lambda(   15)=  0.0132   gamma=   58.63 GHz
     lambda(   16)=  0.0037   gamma=   16.95 GHz
     lambda(   17)=  0.0049   gamma=   25.81 GHz
     lambda(   18)=  0.0049   gamma=   25.73 GHz
     lambda(   19)=  0.0037   gamma=   22.08 GHz
     lambda(   20)=  0.0170   gamma=  130.29 GHz
     lambda(   21)=  0.0170   gamma=  130.27 GHz
     Gaussian Broadening:   0.035 Ry, ngauss=   0
     DOS =  2.381114 states/spin/Ry/Unit Cell at Ef= 17.143351 eV
     lambda(    1)=  0.1082   gamma=   16.09 GHz
     lambda(    2)=  0.1082   gamma=   16.09 GHz
     lambda(    3)=  0.0134   gamma=    5.22 GHz
     lambda(    4)=  0.5009   gamma=  784.93 GHz
     lambda(    5)=  0.4958   gamma=  776.86 GHz
     lambda(    6)=  0.2940   gamma=  717.82 GHz
     lambda(    7)=  0.2941   gamma=  718.12 GHz
     lambda(    8)=  0.0615   gamma=  184.40 GHz
     lambda(    9)=  0.0212   gamma=   74.69 GHz
     lambda(   10)=  0.0212   gamma=   74.70 GHz
     lambda(   11)=  0.0058   gamma=   24.16 GHz
     lambda(   12)=  0.0044   gamma=   18.59 GHz
     lambda(   13)=  0.0060   gamma=   25.23 GHz
     lambda(   14)=  0.0060   gamma=   25.18 GHz
     lambda(   15)=  0.0132   gamma=   59.20 GHz
     lambda(   16)=  0.0037   gamma=   17.05 GHz
     lambda(   17)=  0.0051   gamma=   27.21 GHz
     lambda(   18)=  0.0051   gamma=   27.13 GHz
     lambda(   19)=  0.0040   gamma=   23.90 GHz
     lambda(   20)=  0.0173   gamma=  133.28 GHz
     lambda(   21)=  0.0173   gamma=  133.26 GHz
     Gaussian Broadening:   0.040 Ry, ngauss=   0
     DOS =  2.398900 states/spin/Ry/Unit Cell at Ef= 17.142416 eV
     lambda(    1)=  0.1083   gamma=   16.22 GHz
     lambda(    2)=  0.1083   gamma=   16.22 GHz
     lambda(    3)=  0.0134   gamma=    5.28 GHz
     lambda(    4)=  0.4906   gamma=  774.55 GHz
     lambda(    5)=  0.4868   gamma=  768.48 GHz
     lambda(    6)=  0.2925   gamma=  719.48 GHz
     lambda(    7)=  0.2925   gamma=  719.70 GHz
     lambda(    8)=  0.0639   gamma=  193.10 GHz
     lambda(    9)=  0.0216   gamma=   76.75 GHz
     lambda(   10)=  0.0216   gamma=   76.75 GHz
     lambda(   11)=  0.0059   gamma=   24.78 GHz
     lambda(   12)=  0.0044   gamma=   18.78 GHz
     lambda(   13)=  0.0061   gamma=   25.67 GHz
     lambda(   14)=  0.0061   gamma=   25.64 GHz
     lambda(   15)=  0.0135   gamma=   60.80 GHz
     lambda(   16)=  0.0037   gamma=   17.11 GHz
     lambda(   17)=  0.0053   gamma=   28.50 GHz
     lambda(   18)=  0.0053   gamma=   28.41 GHz
     lambda(   19)=  0.0042   gamma=   25.40 GHz
     lambda(   20)=  0.0174   gamma=  135.56 GHz
     lambda(   21)=  0.0174   gamma=  135.54 GHz
     Gaussian Broadening:   0.045 Ry, ngauss=   0
     DOS =  2.416850 states/spin/Ry/Unit Cell at Ef= 17.141341 eV
     lambda(    1)=  0.1084   gamma=   16.37 GHz
     lambda(    2)=  0.1085   gamma=   16.38 GHz
     lambda(    3)=  0.0136   gamma=    5.40 GHz
     lambda(    4)=  0.4804   gamma=  764.07 GHz
     lambda(    5)=  0.4775   gamma=  759.43 GHz
     lambda(    6)=  0.2903   gamma=  719.57 GHz
     lambda(    7)=  0.2904   gamma=  719.73 GHz
     lambda(    8)=  0.0667   gamma=  203.26 GHz
     lambda(    9)=  0.0220   gamma=   78.59 GHz
     lambda(   10)=  0.0220   gamma=   78.60 GHz
     lambda(   11)=  0.0060   gamma=   25.34 GHz
     lambda(   12)=  0.0045   gamma=   19.07 GHz
     lambda(   13)=  0.0061   gamma=   26.04 GHz
     lambda(   14)=  0.0061   gamma=   26.02 GHz
     lambda(   15)=  0.0140   gamma=   63.69 GHz
     lambda(   16)=  0.0037   gamma=   17.25 GHz
     lambda(   17)=  0.0055   gamma=   29.80 GHz
     lambda(   18)=  0.0055   gamma=   29.70 GHz
     lambda(   19)=  0.0044   gamma=   26.91 GHz
     lambda(   20)=  0.0176   gamma=  137.84 GHz
     lambda(   21)=  0.0176   gamma=  137.82 GHz
     Gaussian Broadening:   0.050 Ry, ngauss=   0
     DOS =  2.436152 states/spin/Ry/Unit Cell at Ef= 17.140123 eV
     lambda(    1)=  0.1088   gamma=   16.56 GHz
     lambda(    2)=  0.1088   gamma=   16.56 GHz
     lambda(    3)=  0.0140   gamma=    5.61 GHz
     lambda(    4)=  0.4708   gamma=  754.80 GHz
     lambda(    5)=  0.4685   gamma=  751.17 GHz
     lambda(    6)=  0.2882   gamma=  719.91 GHz
     lambda(    7)=  0.2882   gamma=  720.04 GHz
     lambda(    8)=  0.0700   gamma=  214.84 GHz
     lambda(    9)=  0.0223   gamma=   80.52 GHz
     lambda(   10)=  0.0223   gamma=   80.53 GHz
     lambda(   11)=  0.0061   gamma=   25.97 GHz
     lambda(   12)=  0.0045   gamma=   19.50 GHz
     lambda(   13)=  0.0061   gamma=   26.45 GHz
     lambda(   14)=  0.0061   gamma=   26.44 GHz
     lambda(   15)=  0.0149   gamma=   68.03 GHz
     lambda(   16)=  0.0037   gamma=   17.53 GHz
     lambda(   17)=  0.0057   gamma=   31.20 GHz
     lambda(   18)=  0.0057   gamma=   31.10 GHz
     lambda(   19)=  0.0046   gamma=   28.61 GHz
     lambda(   20)=  0.0178   gamma=  140.57 GHz
     lambda(   21)=  0.0178   gamma=  140.57 GHz
 
 
     Number of q in the star =    8
     List of q in the star:
          1   0.216506400   0.216506400   0.216506400
          2   0.216506400  -0.216506400   0.216506400
          3  -0.216506400   0.216506400   0.216506400
          4  -0.216506400  -0.216506400  -0.216506400
          5   0.216506400   0.216506400  -0.216506400
          6  -0.216506400  -0.216506400   0.216506400
          7  -0.216506400   0.216506400  -0.216506400
          8   0.216506400  -0.216506400  -0.216506400
 
     init_run     :      0.06s CPU      0.27s WALL (       1 calls)
     electrons    :     19.33s CPU     20.96s WALL (       1 calls)

     Called by init_run:
     wfcinit      :      0.00s CPU      0.14s WALL (       1 calls)
     potinit      :      0.01s CPU      0.03s WALL (       1 calls)
     hinit0       :      0.03s CPU      0.04s WALL (       1 calls)

     Called by electrons:
     c_bands      :     19.31s CPU     20.94s WALL (       1 calls)
     v_of_rho     :      0.01s CPU      0.05s WALL (       2 calls)
     newd         :      0.00s CPU      0.02s WALL (       2 calls)

     Called by c_bands:
     init_us_2    :      0.81s CPU      0.90s WALL (   29784 calls)
     cegterg      :      6.26s CPU      6.77s WALL (     410 calls)

     Called by *egterg:
     cdiaghg      :      2.16s CPU      2.34s WALL (    6462 calls)
     h_psi        :    422.21s CPU    509.33s WALL (  439517 calls)
     s_psi        :      9.12s CPU     10.32s WALL (  905210 calls)
     g_psi        :      0.02s CPU      0.02s WALL (    6054 calls)

     Called by h_psi:
     h_psi:calbec :      8.30s CPU      9.31s WALL (  439517 calls)
     vloc_psi     :    405.78s CPU    490.87s WALL (  439517 calls)
     add_vuspsi   :      4.38s CPU      4.94s WALL (  439517 calls)

     General routines
     calbec       :     42.89s CPU     45.80s WALL (  962534 calls)
     fft          :      0.53s CPU      0.93s WALL (    3303 calls)
     ffts         :      0.44s CPU      0.53s WALL (    4946 calls)
     fftw         :    741.87s CPU    917.27s WALL ( 6362216 calls)
     interpolate  :      0.27s CPU      0.35s WALL (     347 calls)
     davcio       :      5.49s CPU    301.64s WALL (  157871 calls)
 
     Parallel routines
 
     PHONON       :  22m27.44s CPU  31m41.49s WALL

     INITIALIZATION: 
     phq_setup    :      0.01s CPU      0.03s WALL (       1 calls)
     phq_init     :      8.07s CPU      9.12s WALL (       1 calls)
 
     phq_init     :      8.07s CPU      9.12s WALL (       1 calls)
     set_drhoc    :      0.05s CPU      0.05s WALL (       3 calls)
     init_vloc    :      0.00s CPU      0.01s WALL (       2 calls)
     init_us_1    :      0.05s CPU      0.09s WALL (       2 calls)
     newd         :      0.00s CPU      0.02s WALL (       2 calls)
     dvanqq       :      0.17s CPU      0.20s WALL (       1 calls)
     drho         :      4.82s CPU      5.45s WALL (       1 calls)
 
     DYNAMICAL MATRIX:
     dynmat0      :      1.95s CPU      2.19s WALL (       1 calls)
     phqscf       :   1286.55s CPU   1831.65s WALL (       1 calls)
     dynmatrix    :      0.01s CPU      0.05s WALL (       1 calls)
 
     phqscf       :   1286.55s CPU   1831.65s WALL (       1 calls)
     solve_linter :   1260.71s CPU   1792.90s WALL (      14 calls)
     drhodv       :     25.84s CPU     36.05s WALL (      14 calls)
 
     dynmat0      :      1.95s CPU      2.19s WALL (       1 calls)
     dynmat_us    :      1.91s CPU      2.04s WALL (       1 calls)
     d2ionq       :      0.01s CPU      0.01s WALL (       1 calls)
     dynmatcc     :      0.03s CPU      0.04s WALL (       1 calls)
 
     dynmat_us    :      1.91s CPU      2.04s WALL (       1 calls)
     addusdynmat  :      0.00s CPU      0.00s WALL (       1 calls)
 
     phqscf       :   1286.55s CPU   1831.65s WALL (       1 calls)
     solve_linter :   1260.71s CPU   1792.90s WALL (      14 calls)
 
     solve_linter :   1260.71s CPU   1792.90s WALL (      14 calls)
     dvqpsi_us    :      6.52s CPU      7.10s WALL (    4284 calls)
     ortho        :     31.25s CPU     32.57s WALL (   33048 calls)
     cgsolve      :    452.12s CPU    543.23s WALL (   33048 calls)
     incdrhoscf   :    169.59s CPU    214.54s WALL (   33048 calls)
     addusddens   :      1.99s CPU      3.06s WALL (     126 calls)
     vpsifft      :    184.57s CPU    232.25s WALL (   33048 calls)
     dv_of_drho   :      0.41s CPU      0.44s WALL (     162 calls)
     mix_pot      :     17.17s CPU     43.45s WALL (     112 calls)
     psymdvscf    :      8.41s CPU      8.69s WALL (     112 calls)
     newdq        :      2.28s CPU      2.29s WALL (     112 calls)
     adddvscf     :      1.09s CPU      1.23s WALL (   33048 calls)
     drhodvus     :      4.39s CPU      7.52s WALL (      14 calls)
 
     dvqpsi_us    :      6.52s CPU      7.10s WALL (    4284 calls)
     dvqpsi_us_on :      2.54s CPU      2.69s WALL (    4284 calls)
 
     cgsolve      :    452.12s CPU    543.23s WALL (   33048 calls)
     ch_psi       :    446.36s CPU    536.67s WALL (  432645 calls)
 
     ch_psi       :    446.36s CPU    536.67s WALL (  432645 calls)
     h_psi        :    422.21s CPU    509.33s WALL (  439517 calls)
     last         :     18.65s CPU     21.00s WALL (  432645 calls)
 
     h_psi        :    422.21s CPU    509.33s WALL (  439517 calls)
     add_vuspsi   :      4.38s CPU      4.94s WALL (  439517 calls)
 
     incdrhoscf   :    169.59s CPU    214.54s WALL (   33048 calls)
     addusdbec    :      1.12s CPU      1.24s WALL (   37332 calls)
 
     drhodvus     :      4.39s CPU      7.52s WALL (      14 calls)
 
      Electron-phonon coupling
     elphel       :     45.84s CPU     72.57s WALL (      14 calls)
     elphsum      :     32.54s CPU     33.97s WALL (       1 calls)
 
      General routines
     calbec       :     42.89s CPU     45.80s WALL (  962534 calls)
     fft          :      0.53s CPU      0.93s WALL (    3303 calls)
     ffts         :      0.44s CPU      0.53s WALL (    4946 calls)
     fftw         :    741.87s CPU    917.27s WALL ( 6362216 calls)
     davcio       :      5.49s CPU    301.64s WALL (  157871 calls)
     write_rec    :      0.09s CPU     19.81s WALL (     126 calls)
 
 
     PHONON       :  22m27.44s CPU  31m41.50s WALL

 
   This run was terminated on:  20:34:42  21Jul2022            

=------------------------------------------------------------------------------=
   JOB DONE.
=------------------------------------------------------------------------------=
