
     Program PHONON v.6.8 starts on 31Jul2022 at  4:33:41 

     This program is part of the open-source Quantum ESPRESSO suite
     for quantum simulation of materials; please cite
         "P. Giannozzi et al., J. Phys.:Condens. Matter 21 395502 (2009);
         "P. Giannozzi et al., J. Phys.:Condens. Matter 29 465901 (2017);
         "P. Giannozzi et al., J. Chem. Phys. 152 154105 (2020);
          URL http://www.quantum-espresso.org", 
     in publications or presentations arising from this work. More details at
     http://www.quantum-espresso.org/quote

     Parallel version (MPI), running on    48 processors

     MPI processes distributed on     1 nodes
     K-points division:     npool     =       4
     R & G space division:  proc/nbgrp/npool/nimage =      12
     188568 MiB available memory on the printing compute node when the environment starts
 
     Waiting for input...
     Reading input from standard input

     Reading xml data from directory:

     ./tmp/Ca1H6.save/

     IMPORTANT: XC functional enforced from input :
     Exchange-correlation= PBE
                           (   1   4   3   4   0   0   0)
     Any further DFT definition will be discarded
     Please, verify this is what you really want

 
     Parallelization info
     --------------------
     sticks:   dense  smooth     PW     G-vecs:    dense   smooth      PW
     Min         139      46     17                 3602      698     155
     Max         140      47     18                 3604      701     157
     Sum        1669     557    205                43227     8391    1865
 
     Using Slab Decomposition
 
     Reading collected, re-writing distributed wavefunctions


     Dynamical matrices for ( 8, 8, 8)  uniform grid of q-points
     (  29 q-points):
       N         xq(1)         xq(2)         xq(3) 
       1   0.000000000   0.000000000   0.000000000
       2   0.108253175   0.108253175   0.000000000
       3   0.216506351   0.216506351   0.000000000
       4   0.324759526   0.324759526   0.000000000
       5  -0.433012702  -0.433012702   0.000000000
       6   0.216506351   0.108253175   0.108253175
       7   0.324759526   0.216506351   0.108253175
       8   0.433012702   0.324759526   0.108253175
       9   0.433012702   0.216506351   0.216506351
      10   0.541265877   0.324759526   0.216506351
      11   0.216506351   0.216506351   0.216506351
      12   0.324759526   0.324759526   0.216506351
      13   0.433012702   0.433012702   0.216506351
      14  -0.000000000  -0.000000000   0.216506351
      15   0.433012702   0.324759526   0.324759526
      16  -0.000000000  -0.108253175   0.324759526
      17  -0.000000000  -0.216506351   0.433012702
      18   0.108253175  -0.108253175   0.433012702
      19  -0.866025404  -0.324759526  -0.324759526
      20  -0.757772228  -0.216506351  -0.324759526
      21  -0.649519053  -0.216506351  -0.216506351
      22   0.433012702   0.433012702   0.433012702
      23  -0.000000000  -0.000000000   0.433012702
      24  -0.000000000  -0.108253175   0.541265877
      25  -0.866025404  -0.216506351  -0.216506351
      26  -0.757772228  -0.108253175  -0.216506351
      27  -0.000000000  -0.000000000   0.649519053
      28  -0.866025404  -0.108253175  -0.108253175
      29  -0.866025404  -0.866025404  -0.866025404

     Saving dvscf to file. Distribute only q points, not irreducible represetations.

     Calculation of q =   -0.8660254  -0.2165064  -0.2165064

     Subspace diagonalization in iterative solution of the eigenvalue problem:
     a serial algorithm will be used

 
     Parallelization info
     --------------------
     sticks:   dense  smooth     PW     G-vecs:    dense   smooth      PW
     Min         139      46     20                 3602      698     206
     Max         140      47     21                 3604      701     208
     Sum        1669     557    249                43227     8391    2491
 
     Using Slab Decomposition
 

     Title: 
     Electron-phonon coefficients for Ca1H6                                     


     bravais-lattice index     =            0
     lattice parameter (alat)  =       5.5613  a.u.
     unit-cell volume          =     132.4087 (a.u.)^3
     number of atoms/cell      =            7
     number of atomic types    =            2
     number of electrons       =        16.00
     number of Kohn-Sham states=           12
     kinetic-energy cutoff     =      60.0000  Ry
     charge density cutoff     =     720.0000  Ry
     Exchange-correlation= PBE
                           (   1   4   3   4   0   0   0)

     celldm(1)=   5.561340  celldm(2)=   0.000000  celldm(3)=   0.000000
     celldm(4)=   0.000000  celldm(5)=   0.000000  celldm(6)=   0.000000

     crystal axes: (cart. coord. in units of alat)
               a(1) = (  -0.577350   0.577350   0.577350 )  
               a(2) = (   0.577350  -0.577350   0.577350 )  
               a(3) = (   0.577350   0.577350  -0.577350 )  

     reciprocal axes: (cart. coord. in units 2 pi/alat)
               b(1) = ( -0.000000  0.866025  0.866025 )  
               b(2) = (  0.866025 -0.000000  0.866025 )  
               b(3) = (  0.866025  0.866025  0.000000 )  


     PseudoPot. # 1 for Ca read from file:
     /work/home/mayuan/code/my_script/scripts_tests/out2/200.0/pp/ca_pbe_v1.uspp.F.UPF
     MD5 check sum: 403a4c14b9e4d4dfdc3024c9a3812218
     Pseudo is Ultrasoft + core correction, Zval = 10.0
     Generated by new atomic code, or converted to UPF format
     Using radial grid of  845 points,  6 beta functions with: 
                l(1) =   0
                l(2) =   0
                l(3) =   1
                l(4) =   1
                l(5) =   2
                l(6) =   2
     Q(r) pseudized with  8 coefficients,  rinner =    1.500   1.500   1.500
                                                       1.500   1.500

     PseudoPot. # 2 for H  read from file:
     /work/home/mayuan/code/my_script/scripts_tests/out2/200.0/pp/h_pbe_v1.uspp.F.UPF
     MD5 check sum: 3408e3ff4ec8b0a4e358431e7e038a48
     Pseudo is Ultrasoft, Zval =  1.0
     Generated by new atomic code, or converted to UPF format
     Using radial grid of  615 points,  2 beta functions with: 
                l(1) =   0
                l(2) =   0
     Q(r) pseudized with  8 coefficients,  rinner =    0.700

     atomic species   valence    mass     pseudopotential
        Ca            10.00    40.07800     Ca( 1.00)
        H              1.00     1.00794     H ( 1.00)

     48 Sym. Ops., with inversion, found



   Cartesian axes

     site n.     atom                  positions (alat units)
         1           Ca  tau(   1) = (   0.0000000   0.0000000   0.0000000  )
         2           H   tau(   2) = (   0.2886751   0.0000000   0.5773503  )
         3           H   tau(   3) = (   0.2886751   0.5773503   0.0000000  )
         4           H   tau(   4) = (   0.5773503   0.2886751   0.0000000  )
         5           H   tau(   5) = (   0.0000000   0.2886751   0.5773503  )
         6           H   tau(   6) = (   0.0000000   0.5773503   0.2886751  )
         7           H   tau(   7) = (   0.5773503   0.0000000   0.2886751  )

     number of k points=  2320  Methfessel-Paxton smearing, width (Ry)=  0.0200

     Number of k-points >= 100: set verbosity='high' to print them.

     Dense  grid:    43227 G-vectors     FFT dimensions: (  48,  48,  48)

     Smooth grid:     8391 G-vectors     FFT dimensions: (  27,  27,  27)

     Estimated max dynamical RAM per process >       8.43 MB

     Estimated total dynamical RAM >     404.48 MB

     The potential is recalculated from file :
     ./tmp/_ph0/Ca1H6.q_25/Ca1H6.save/charge-density

     Starting wfcs are   16 atomic wfcs

     Band Structure Calculation
     Davidson diagonalization with overlap

     ethr =  6.25E-11,  avg # of iterations = 14.9

     total cpu time spent up to now is       14.5 secs

     End of band structure calculation

     Number of k-points >= 100: set verbosity='high' to print the bands.

     the Fermi energy is    17.0980 ev

     Writing output data file ./tmp/_ph0/Ca1H6.q_25/Ca1H6.save/

     Electron-phonon coefficients for Ca1H6                                     

     bravais-lattice index     =            0
     lattice parameter (alat)  =       5.5613  a.u.
     unit-cell volume          =     132.4087 (a.u.)^3
     number of atoms/cell      =            7
     number of atomic types    =            2
     kinetic-energy cut-off    =      60.0000  Ry
     charge density cut-off    =     720.0000  Ry
     convergence threshold     =      1.0E-16
     beta                      =       0.7000
     number of iterations used =            4
     Exchange-correlation= PBE
                           (   1   4   3   4   0   0   0)


     celldm(1)=    5.56134  celldm(2)=    0.00000  celldm(3)=    0.00000
     celldm(4)=    0.00000  celldm(5)=    0.00000  celldm(6)=    0.00000

     crystal axes: (cart. coord. in units of alat)
               a(1) = ( -0.5774  0.5774  0.5774 )  
               a(2) = (  0.5774 -0.5774  0.5774 )  
               a(3) = (  0.5774  0.5774 -0.5774 )  

     reciprocal axes: (cart. coord. in units 2 pi/alat)
               b(1) = ( -0.0000  0.8660  0.8660 )  
               b(2) = (  0.8660 -0.0000  0.8660 )  
               b(3) = (  0.8660  0.8660  0.0000 )  


     Atoms inside the unit cell: 

     Cartesian axes

     site n.  atom      mass           positions (alat units)
        1     Ca  40.0780   tau(    1) = (    0.00000    0.00000    0.00000  )
        2     H    1.0079   tau(    2) = (    0.28868    0.00000    0.57735  )
        3     H    1.0079   tau(    3) = (    0.28868    0.57735    0.00000  )
        4     H    1.0079   tau(    4) = (    0.57735    0.28868    0.00000  )
        5     H    1.0079   tau(    5) = (    0.00000    0.28868    0.57735  )
        6     H    1.0079   tau(    6) = (    0.00000    0.57735    0.28868  )
        7     H    1.0079   tau(    7) = (    0.57735    0.00000    0.28868  )

     Computing dynamical matrix for 
                    q = (  -0.8660254  -0.2165064  -0.2165064 )
 
      4 Sym.Ops. (no q -> -q+G )


     G cutoff =  564.0682  (   3604 G-vectors)     FFT grid: ( 48, 48, 48)
     G cutoff =  188.0227  (    699 G-vectors)  smooth grid: ( 27, 27, 27)

     number of k points=  2320  Methfessel-Paxton smearing, width (Ry)=  0.0200

     PseudoPot. # 1 for Ca read from file:
     /work/home/mayuan/code/my_script/scripts_tests/out2/200.0/pp/ca_pbe_v1.uspp.F.UPF
     MD5 check sum: 403a4c14b9e4d4dfdc3024c9a3812218
     Pseudo is Ultrasoft + core correction, Zval = 10.0
     Generated by new atomic code, or converted to UPF format
     Using radial grid of  845 points,  6 beta functions with: 
                l(1) =   0
                l(2) =   0
                l(3) =   1
                l(4) =   1
                l(5) =   2
                l(6) =   2
     Q(r) pseudized with  8 coefficients,  rinner =    1.500   1.500   1.500
                                                       1.500   1.500

     PseudoPot. # 2 for H  read from file:
     /work/home/mayuan/code/my_script/scripts_tests/out2/200.0/pp/h_pbe_v1.uspp.F.UPF
     MD5 check sum: 3408e3ff4ec8b0a4e358431e7e038a48
     Pseudo is Ultrasoft, Zval =  1.0
     Generated by new atomic code, or converted to UPF format
     Using radial grid of  615 points,  2 beta functions with: 
                l(1) =   0
                l(2) =   0
     Q(r) pseudized with  8 coefficients,  rinner =    0.700

     Mode symmetry, C_2v (mm2)  point group:


     Atomic displacements:
     There are   21 irreducible representations

     Representation     1      1 modes -  To be done

     Representation     2      1 modes -  To be done

     Representation     3      1 modes -  To be done

     Representation     4      1 modes -  To be done

     Representation     5      1 modes -  To be done

     Representation     6      1 modes -  To be done

     Representation     7      1 modes -  To be done

     Representation     8      1 modes -  To be done

     Representation     9      1 modes -  To be done

     Representation    10      1 modes -  To be done

     Representation    11      1 modes -  To be done

     Representation    12      1 modes -  To be done

     Representation    13      1 modes -  To be done

     Representation    14      1 modes -  To be done

     Representation    15      1 modes -  To be done

     Representation    16      1 modes -  To be done

     Representation    17      1 modes -  To be done

     Representation    18      1 modes -  To be done

     Representation    19      1 modes -  To be done

     Representation    20      1 modes -  To be done

     Representation    21      1 modes -  To be done



     Alpha used in Ewald sum =   2.8000
     PHONON       :     20.54s CPU     29.76s WALL



     Representation #   1 mode #   1

     Self-consistent Calculation

      iter #   1 total cpu time :    34.3 secs   av.it.:   4.0
      thresh= 1.000E-02 alpha_mix =  0.700 |ddv_scf|^2 =  5.618E-07

      iter #   2 total cpu time :    42.6 secs   av.it.:   9.6
      thresh= 7.495E-05 alpha_mix =  0.700 |ddv_scf|^2 =  3.312E-07

      iter #   3 total cpu time :    48.8 secs   av.it.:   9.2
      thresh= 5.755E-05 alpha_mix =  0.700 |ddv_scf|^2 =  1.580E-08

      iter #   4 total cpu time :    54.7 secs   av.it.:   8.9
      thresh= 1.257E-05 alpha_mix =  0.700 |ddv_scf|^2 =  2.729E-10

      iter #   5 total cpu time :    63.8 secs   av.it.:   9.5
      thresh= 1.652E-06 alpha_mix =  0.700 |ddv_scf|^2 =  1.182E-11

      iter #   6 total cpu time :    74.7 secs   av.it.:   9.5
      thresh= 3.437E-07 alpha_mix =  0.700 |ddv_scf|^2 =  2.497E-13

      iter #   7 total cpu time :    83.2 secs   av.it.:   9.3
      thresh= 4.997E-08 alpha_mix =  0.700 |ddv_scf|^2 =  5.658E-15

      iter #   8 total cpu time :    90.0 secs   av.it.:   9.7
      thresh= 7.522E-09 alpha_mix =  0.700 |ddv_scf|^2 =  3.928E-16

      iter #   9 total cpu time :    99.4 secs   av.it.:   9.6
      thresh= 1.982E-09 alpha_mix =  0.700 |ddv_scf|^2 =  1.838E-17

     End of self-consistent calculation

     Convergence has been achieved 


     Representation #   2 mode #   2

     Self-consistent Calculation

      iter #   1 total cpu time :   109.3 secs   av.it.:   4.0
      thresh= 1.000E-02 alpha_mix =  0.700 |ddv_scf|^2 =  4.838E-07

      iter #   2 total cpu time :   117.4 secs   av.it.:   9.6
      thresh= 6.956E-05 alpha_mix =  0.700 |ddv_scf|^2 =  5.062E-07

      iter #   3 total cpu time :   123.4 secs   av.it.:   8.8
      thresh= 7.115E-05 alpha_mix =  0.700 |ddv_scf|^2 =  5.075E-09

      iter #   4 total cpu time :   130.6 secs   av.it.:   9.3
      thresh= 7.124E-06 alpha_mix =  0.700 |ddv_scf|^2 =  1.689E-10

      iter #   5 total cpu time :   139.3 secs   av.it.:   9.4
      thresh= 1.300E-06 alpha_mix =  0.700 |ddv_scf|^2 =  1.035E-11

      iter #   6 total cpu time :   149.3 secs   av.it.:   9.7
      thresh= 3.217E-07 alpha_mix =  0.700 |ddv_scf|^2 =  3.505E-13

      iter #   7 total cpu time :   156.1 secs   av.it.:   9.5
      thresh= 5.921E-08 alpha_mix =  0.700 |ddv_scf|^2 =  5.416E-15

      iter #   8 total cpu time :   162.5 secs   av.it.:   9.8
      thresh= 7.359E-09 alpha_mix =  0.700 |ddv_scf|^2 =  4.087E-16

      iter #   9 total cpu time :   171.1 secs   av.it.:   9.8
      thresh= 2.022E-09 alpha_mix =  0.700 |ddv_scf|^2 =  9.327E-17

     End of self-consistent calculation

     Convergence has been achieved 


     Representation #   3 mode #   3

     Self-consistent Calculation

      iter #   1 total cpu time :   180.0 secs   av.it.:   4.2
      thresh= 1.000E-02 alpha_mix =  0.700 |ddv_scf|^2 =  1.449E-06

      iter #   2 total cpu time :   186.7 secs   av.it.:   9.4
      thresh= 1.204E-04 alpha_mix =  0.700 |ddv_scf|^2 =  1.956E-06

      iter #   3 total cpu time :   193.1 secs   av.it.:   8.7
      thresh= 1.399E-04 alpha_mix =  0.700 |ddv_scf|^2 =  1.255E-09

      iter #   4 total cpu time :   201.0 secs   av.it.:   9.6
      thresh= 3.543E-06 alpha_mix =  0.700 |ddv_scf|^2 =  9.147E-11

      iter #   5 total cpu time :   209.5 secs   av.it.:   9.6
      thresh= 9.564E-07 alpha_mix =  0.700 |ddv_scf|^2 =  6.697E-12

      iter #   6 total cpu time :   218.1 secs   av.it.:   9.5
      thresh= 2.588E-07 alpha_mix =  0.700 |ddv_scf|^2 =  2.087E-13

      iter #   7 total cpu time :   224.7 secs   av.it.:   9.6
      thresh= 4.568E-08 alpha_mix =  0.700 |ddv_scf|^2 =  5.594E-15

      iter #   8 total cpu time :   232.3 secs   av.it.:   9.5
      thresh= 7.479E-09 alpha_mix =  0.700 |ddv_scf|^2 =  5.846E-16

      iter #   9 total cpu time :   241.8 secs   av.it.:   9.6
      thresh= 2.418E-09 alpha_mix =  0.700 |ddv_scf|^2 =  3.466E-16

      iter #  10 total cpu time :   251.7 secs   av.it.:   9.0
      thresh= 1.862E-09 alpha_mix =  0.700 |ddv_scf|^2 =  7.708E-18

     End of self-consistent calculation

     Convergence has been achieved 


     Representation #   4 mode #   4

     Self-consistent Calculation

      iter #   1 total cpu time :   257.9 secs   av.it.:   4.2
      thresh= 1.000E-02 alpha_mix =  0.700 |ddv_scf|^2 =  2.079E-06

      iter #   2 total cpu time :   265.1 secs   av.it.:   9.4
      thresh= 1.442E-04 alpha_mix =  0.700 |ddv_scf|^2 =  2.811E-06

      iter #   3 total cpu time :   275.5 secs   av.it.:   8.7
      thresh= 1.677E-04 alpha_mix =  0.700 |ddv_scf|^2 =  2.227E-09

      iter #   4 total cpu time :   288.0 secs   av.it.:   9.6
      thresh= 4.719E-06 alpha_mix =  0.700 |ddv_scf|^2 =  1.606E-10

      iter #   5 total cpu time :   299.0 secs   av.it.:   9.5
      thresh= 1.267E-06 alpha_mix =  0.700 |ddv_scf|^2 =  8.243E-12

      iter #   6 total cpu time :   308.1 secs   av.it.:   9.5
      thresh= 2.871E-07 alpha_mix =  0.700 |ddv_scf|^2 =  2.767E-13

      iter #   7 total cpu time :   316.8 secs   av.it.:   9.4
      thresh= 5.260E-08 alpha_mix =  0.700 |ddv_scf|^2 =  3.426E-15

      iter #   8 total cpu time :   325.9 secs   av.it.:   9.7
      thresh= 5.853E-09 alpha_mix =  0.700 |ddv_scf|^2 =  2.406E-16

      iter #   9 total cpu time :   333.2 secs   av.it.:   9.7
      thresh= 1.551E-09 alpha_mix =  0.700 |ddv_scf|^2 =  3.487E-17

     End of self-consistent calculation

     Convergence has been achieved 


     Representation #   5 mode #   5

     Self-consistent Calculation

      iter #   1 total cpu time :   343.5 secs   av.it.:   4.1
      thresh= 1.000E-02 alpha_mix =  0.700 |ddv_scf|^2 =  1.099E-06

      iter #   2 total cpu time :   351.9 secs   av.it.:   9.4
      thresh= 1.048E-04 alpha_mix =  0.700 |ddv_scf|^2 =  1.469E-06

      iter #   3 total cpu time :   360.0 secs   av.it.:   8.7
      thresh= 1.212E-04 alpha_mix =  0.700 |ddv_scf|^2 =  1.225E-09

      iter #   4 total cpu time :   366.4 secs   av.it.:   9.7
      thresh= 3.500E-06 alpha_mix =  0.700 |ddv_scf|^2 =  9.720E-11

      iter #   5 total cpu time :   374.9 secs   av.it.:   9.7
      thresh= 9.859E-07 alpha_mix =  0.700 |ddv_scf|^2 =  5.054E-12

      iter #   6 total cpu time :   384.1 secs   av.it.:   9.5
      thresh= 2.248E-07 alpha_mix =  0.700 |ddv_scf|^2 =  3.564E-13

      iter #   7 total cpu time :   394.0 secs   av.it.:   9.5
      thresh= 5.970E-08 alpha_mix =  0.700 |ddv_scf|^2 =  7.729E-15

      iter #   8 total cpu time :   400.8 secs   av.it.:   9.5
      thresh= 8.792E-09 alpha_mix =  0.700 |ddv_scf|^2 =  6.702E-16

      iter #   9 total cpu time :   409.7 secs   av.it.:   9.6
      thresh= 2.589E-09 alpha_mix =  0.700 |ddv_scf|^2 =  4.115E-16

      iter #  10 total cpu time :   419.7 secs   av.it.:   9.0
      thresh= 2.028E-09 alpha_mix =  0.700 |ddv_scf|^2 =  8.257E-18

     End of self-consistent calculation

     Convergence has been achieved 


     Representation #   6 mode #   6

     Self-consistent Calculation

      iter #   1 total cpu time :   429.5 secs   av.it.:   6.5
      thresh= 1.000E-02 alpha_mix =  0.700 |ddv_scf|^2 =  3.826E-05

      iter #   2 total cpu time :   435.8 secs   av.it.:   9.6
      thresh= 6.185E-04 alpha_mix =  0.700 |ddv_scf|^2 =  4.405E-05

      iter #   3 total cpu time :   443.8 secs   av.it.:   8.7
      thresh= 6.637E-04 alpha_mix =  0.700 |ddv_scf|^2 =  3.221E-07

      iter #   4 total cpu time :   453.4 secs   av.it.:   9.4
      thresh= 5.675E-05 alpha_mix =  0.700 |ddv_scf|^2 =  6.197E-09

      iter #   5 total cpu time :   463.1 secs   av.it.:   9.4
      thresh= 7.872E-06 alpha_mix =  0.700 |ddv_scf|^2 =  2.807E-10

      iter #   6 total cpu time :   469.7 secs   av.it.:   9.3
      thresh= 1.675E-06 alpha_mix =  0.700 |ddv_scf|^2 =  2.614E-12

      iter #   7 total cpu time :   477.0 secs   av.it.:   9.6
      thresh= 1.617E-07 alpha_mix =  0.700 |ddv_scf|^2 =  1.507E-13

      iter #   8 total cpu time :   487.0 secs   av.it.:   9.6
      thresh= 3.883E-08 alpha_mix =  0.700 |ddv_scf|^2 =  3.447E-14

      iter #   9 total cpu time :   497.4 secs   av.it.:   9.3
      thresh= 1.857E-08 alpha_mix =  0.700 |ddv_scf|^2 =  7.386E-15

      iter #  10 total cpu time :   504.2 secs   av.it.:   8.8
      thresh= 8.594E-09 alpha_mix =  0.700 |ddv_scf|^2 =  1.251E-16

      iter #  11 total cpu time :   512.2 secs   av.it.:   9.3
      thresh= 1.119E-09 alpha_mix =  0.700 |ddv_scf|^2 =  5.633E-18

     End of self-consistent calculation

     Convergence has been achieved 


     Representation #   7 mode #   7

     Self-consistent Calculation

      iter #   1 total cpu time :   521.5 secs   av.it.:   4.0
      thresh= 1.000E-02 alpha_mix =  0.700 |ddv_scf|^2 =  1.348E-07

      iter #   2 total cpu time :   530.6 secs   av.it.:   9.6
      thresh= 3.671E-05 alpha_mix =  0.700 |ddv_scf|^2 =  2.148E-08

      iter #   3 total cpu time :   540.5 secs   av.it.:   9.5
      thresh= 1.465E-05 alpha_mix =  0.700 |ddv_scf|^2 =  2.152E-09

      iter #   4 total cpu time :   548.8 secs   av.it.:   9.1
      thresh= 4.639E-06 alpha_mix =  0.700 |ddv_scf|^2 =  3.700E-10

      iter #   5 total cpu time :   560.3 secs   av.it.:   9.0
      thresh= 1.923E-06 alpha_mix =  0.700 |ddv_scf|^2 =  1.345E-11

      iter #   6 total cpu time :   571.1 secs   av.it.:   9.6
      thresh= 3.668E-07 alpha_mix =  0.700 |ddv_scf|^2 =  4.568E-13

      iter #   7 total cpu time :   579.1 secs   av.it.:   9.5
      thresh= 6.758E-08 alpha_mix =  0.700 |ddv_scf|^2 =  5.478E-15

      iter #   8 total cpu time :   588.1 secs   av.it.:   9.5
      thresh= 7.401E-09 alpha_mix =  0.700 |ddv_scf|^2 =  2.440E-16

      iter #   9 total cpu time :   600.7 secs   av.it.:   9.8
      thresh= 1.562E-09 alpha_mix =  0.700 |ddv_scf|^2 =  2.162E-17

     End of self-consistent calculation

     Convergence has been achieved 


     Representation #   8 mode #   8

     Self-consistent Calculation

      iter #   1 total cpu time :   610.7 secs   av.it.:   3.4
      thresh= 1.000E-02 alpha_mix =  0.700 |ddv_scf|^2 =  1.048E-08

      iter #   2 total cpu time :   618.3 secs   av.it.:   9.1
      thresh= 1.024E-05 alpha_mix =  0.700 |ddv_scf|^2 =  6.152E-10

      iter #   3 total cpu time :   625.7 secs   av.it.:   8.9
      thresh= 2.480E-06 alpha_mix =  0.700 |ddv_scf|^2 =  5.763E-12

      iter #   4 total cpu time :   635.3 secs   av.it.:   8.7
      thresh= 2.401E-07 alpha_mix =  0.700 |ddv_scf|^2 =  2.578E-14

      iter #   5 total cpu time :   645.9 secs   av.it.:   9.2
      thresh= 1.606E-08 alpha_mix =  0.700 |ddv_scf|^2 =  2.244E-16

      iter #   6 total cpu time :   655.6 secs   av.it.:   8.6
      thresh= 1.498E-09 alpha_mix =  0.700 |ddv_scf|^2 =  3.431E-18

     End of self-consistent calculation

     Convergence has been achieved 


     Representation #   9 mode #   9

     Self-consistent Calculation

      iter #   1 total cpu time :   663.0 secs   av.it.:   3.4
      thresh= 1.000E-02 alpha_mix =  0.700 |ddv_scf|^2 =  1.237E-08

      iter #   2 total cpu time :   672.0 secs   av.it.:   9.1
      thresh= 1.112E-05 alpha_mix =  0.700 |ddv_scf|^2 =  6.802E-10

      iter #   3 total cpu time :   681.0 secs   av.it.:   9.0
      thresh= 2.608E-06 alpha_mix =  0.700 |ddv_scf|^2 =  7.228E-12

      iter #   4 total cpu time :   689.8 secs   av.it.:   8.7
      thresh= 2.689E-07 alpha_mix =  0.700 |ddv_scf|^2 =  3.593E-14

      iter #   5 total cpu time :   696.9 secs   av.it.:   9.2
      thresh= 1.896E-08 alpha_mix =  0.700 |ddv_scf|^2 =  3.051E-16

      iter #   6 total cpu time :   704.8 secs   av.it.:   9.0
      thresh= 1.747E-09 alpha_mix =  0.700 |ddv_scf|^2 =  4.862E-18

     End of self-consistent calculation

     Convergence has been achieved 


     Representation #  10 mode #  10

     Self-consistent Calculation

      iter #   1 total cpu time :   714.5 secs   av.it.:   3.4
      thresh= 1.000E-02 alpha_mix =  0.700 |ddv_scf|^2 =  1.375E-08

      iter #   2 total cpu time :   724.3 secs   av.it.:   9.1
      thresh= 1.173E-05 alpha_mix =  0.700 |ddv_scf|^2 =  7.003E-10

      iter #   3 total cpu time :   731.1 secs   av.it.:   9.0
      thresh= 2.646E-06 alpha_mix =  0.700 |ddv_scf|^2 =  7.939E-12

      iter #   4 total cpu time :   738.9 secs   av.it.:   8.6
      thresh= 2.818E-07 alpha_mix =  0.700 |ddv_scf|^2 =  3.885E-14

      iter #   5 total cpu time :   750.5 secs   av.it.:   9.1
      thresh= 1.971E-08 alpha_mix =  0.700 |ddv_scf|^2 =  3.127E-16

      iter #   6 total cpu time :   760.1 secs   av.it.:   9.0
      thresh= 1.768E-09 alpha_mix =  0.700 |ddv_scf|^2 =  4.210E-18

     End of self-consistent calculation

     Convergence has been achieved 


     Representation #  11 mode #  11

     Self-consistent Calculation

      iter #   1 total cpu time :   767.9 secs   av.it.:   3.4
      thresh= 1.000E-02 alpha_mix =  0.700 |ddv_scf|^2 =  1.237E-08

      iter #   2 total cpu time :   774.2 secs   av.it.:   9.1
      thresh= 1.112E-05 alpha_mix =  0.700 |ddv_scf|^2 =  6.802E-10

      iter #   3 total cpu time :   783.6 secs   av.it.:   9.0
      thresh= 2.608E-06 alpha_mix =  0.700 |ddv_scf|^2 =  7.228E-12

      iter #   4 total cpu time :   794.5 secs   av.it.:   8.7
      thresh= 2.689E-07 alpha_mix =  0.700 |ddv_scf|^2 =  3.594E-14

      iter #   5 total cpu time :   803.1 secs   av.it.:   9.2
      thresh= 1.896E-08 alpha_mix =  0.700 |ddv_scf|^2 =  3.051E-16

      iter #   6 total cpu time :   810.4 secs   av.it.:   9.0
      thresh= 1.747E-09 alpha_mix =  0.700 |ddv_scf|^2 =  4.863E-18

     End of self-consistent calculation

     Convergence has been achieved 


     Representation #  12 mode #  12

     Self-consistent Calculation

      iter #   1 total cpu time :   819.9 secs   av.it.:   6.4
      thresh= 1.000E-02 alpha_mix =  0.700 |ddv_scf|^2 =  2.332E-05

      iter #   2 total cpu time :   829.6 secs   av.it.:   9.4
      thresh= 4.829E-04 alpha_mix =  0.700 |ddv_scf|^2 =  7.243E-06

      iter #   3 total cpu time :   839.6 secs   av.it.:   9.0
      thresh= 2.691E-04 alpha_mix =  0.700 |ddv_scf|^2 =  4.536E-09

      iter #   4 total cpu time :   846.1 secs   av.it.:   9.5
      thresh= 6.735E-06 alpha_mix =  0.700 |ddv_scf|^2 =  3.258E-10

      iter #   5 total cpu time :   854.8 secs   av.it.:   9.0
      thresh= 1.805E-06 alpha_mix =  0.700 |ddv_scf|^2 =  3.221E-12

      iter #   6 total cpu time :   865.6 secs   av.it.:   9.3
      thresh= 1.795E-07 alpha_mix =  0.700 |ddv_scf|^2 =  2.172E-14

      iter #   7 total cpu time :   874.9 secs   av.it.:   8.9
      thresh= 1.474E-08 alpha_mix =  0.700 |ddv_scf|^2 =  1.409E-15

      iter #   8 total cpu time :   881.8 secs   av.it.:   8.9
      thresh= 3.753E-09 alpha_mix =  0.700 |ddv_scf|^2 =  6.459E-18

     End of self-consistent calculation

     Convergence has been achieved 


     Representation #  13 mode #  13

     Self-consistent Calculation

      iter #   1 total cpu time :   891.2 secs   av.it.:   4.1
      thresh= 1.000E-02 alpha_mix =  0.700 |ddv_scf|^2 =  4.091E-07

      iter #   2 total cpu time :   900.5 secs   av.it.:   9.4
      thresh= 6.396E-05 alpha_mix =  0.700 |ddv_scf|^2 =  1.003E-07

      iter #   3 total cpu time :   909.8 secs   av.it.:   9.1
      thresh= 3.167E-05 alpha_mix =  0.700 |ddv_scf|^2 =  5.360E-10

      iter #   4 total cpu time :   916.0 secs   av.it.:   9.4
      thresh= 2.315E-06 alpha_mix =  0.700 |ddv_scf|^2 =  1.299E-11

      iter #   5 total cpu time :   924.1 secs   av.it.:   9.3
      thresh= 3.604E-07 alpha_mix =  0.700 |ddv_scf|^2 =  3.157E-13

      iter #   6 total cpu time :   935.2 secs   av.it.:   9.2
      thresh= 5.619E-08 alpha_mix =  0.700 |ddv_scf|^2 =  1.815E-15

      iter #   7 total cpu time :   945.6 secs   av.it.:   9.3
      thresh= 4.260E-09 alpha_mix =  0.700 |ddv_scf|^2 =  1.044E-16

      iter #   8 total cpu time :   953.0 secs   av.it.:   9.3
      thresh= 1.022E-09 alpha_mix =  0.700 |ddv_scf|^2 =  1.427E-18

     End of self-consistent calculation

     Convergence has been achieved 


     Representation #  14 mode #  14

     Self-consistent Calculation

      iter #   1 total cpu time :   961.7 secs   av.it.:   3.8
      thresh= 1.000E-02 alpha_mix =  0.700 |ddv_scf|^2 =  8.207E-08

      iter #   2 total cpu time :   972.0 secs   av.it.:   9.3
      thresh= 2.865E-05 alpha_mix =  0.700 |ddv_scf|^2 =  1.382E-08

      iter #   3 total cpu time :   982.3 secs   av.it.:   9.1
      thresh= 1.176E-05 alpha_mix =  0.700 |ddv_scf|^2 =  5.437E-10

      iter #   4 total cpu time :   991.0 secs   av.it.:   9.0
      thresh= 2.332E-06 alpha_mix =  0.700 |ddv_scf|^2 =  7.484E-12

      iter #   5 total cpu time :   999.6 secs   av.it.:   9.2
      thresh= 2.736E-07 alpha_mix =  0.700 |ddv_scf|^2 =  2.445E-13

      iter #   6 total cpu time :  1010.9 secs   av.it.:   9.3
      thresh= 4.945E-08 alpha_mix =  0.700 |ddv_scf|^2 =  2.267E-15

      iter #   7 total cpu time :  1023.0 secs   av.it.:   8.9
      thresh= 4.761E-09 alpha_mix =  0.700 |ddv_scf|^2 =  1.404E-16

      iter #   8 total cpu time :  1032.8 secs   av.it.:   9.0
      thresh= 1.185E-09 alpha_mix =  0.700 |ddv_scf|^2 =  7.189E-19

     End of self-consistent calculation

     Convergence has been achieved 


     Representation #  15 mode #  15

     Self-consistent Calculation

      iter #   1 total cpu time :  1042.3 secs   av.it.:   4.1
      thresh= 1.000E-02 alpha_mix =  0.700 |ddv_scf|^2 =  4.091E-07

      iter #   2 total cpu time :  1052.5 secs   av.it.:   9.4
      thresh= 6.396E-05 alpha_mix =  0.700 |ddv_scf|^2 =  1.003E-07

      iter #   3 total cpu time :  1061.7 secs   av.it.:   9.1
      thresh= 3.167E-05 alpha_mix =  0.700 |ddv_scf|^2 =  5.360E-10

      iter #   4 total cpu time :  1068.4 secs   av.it.:   9.4
      thresh= 2.315E-06 alpha_mix =  0.700 |ddv_scf|^2 =  1.299E-11

      iter #   5 total cpu time :  1075.7 secs   av.it.:   9.3
      thresh= 3.604E-07 alpha_mix =  0.700 |ddv_scf|^2 =  3.157E-13

      iter #   6 total cpu time :  1086.6 secs   av.it.:   9.2
      thresh= 5.619E-08 alpha_mix =  0.700 |ddv_scf|^2 =  1.815E-15

      iter #   7 total cpu time :  1098.5 secs   av.it.:   9.3
      thresh= 4.261E-09 alpha_mix =  0.700 |ddv_scf|^2 =  1.044E-16

      iter #   8 total cpu time :  1107.7 secs   av.it.:   9.3
      thresh= 1.022E-09 alpha_mix =  0.700 |ddv_scf|^2 =  1.425E-18

     End of self-consistent calculation

     Convergence has been achieved 


     Representation #  16 mode #  16

     Self-consistent Calculation

      iter #   1 total cpu time :  1115.5 secs   av.it.:   3.8
      thresh= 1.000E-02 alpha_mix =  0.700 |ddv_scf|^2 =  4.143E-07

      iter #   2 total cpu time :  1126.8 secs   av.it.:   9.2
      thresh= 6.436E-05 alpha_mix =  0.700 |ddv_scf|^2 =  6.146E-07

      iter #   3 total cpu time :  1136.8 secs   av.it.:   8.4
      thresh= 7.840E-05 alpha_mix =  0.700 |ddv_scf|^2 =  1.441E-09

      iter #   4 total cpu time :  1143.7 secs   av.it.:   9.3
      thresh= 3.796E-06 alpha_mix =  0.700 |ddv_scf|^2 =  4.497E-11

      iter #   5 total cpu time :  1150.2 secs   av.it.:   9.3
      thresh= 6.706E-07 alpha_mix =  0.700 |ddv_scf|^2 =  7.853E-13

      iter #   6 total cpu time :  1159.3 secs   av.it.:   9.3
      thresh= 8.862E-08 alpha_mix =  0.700 |ddv_scf|^2 =  1.008E-14

      iter #   7 total cpu time :  1170.2 secs   av.it.:   9.5
      thresh= 1.004E-08 alpha_mix =  0.700 |ddv_scf|^2 =  8.048E-16

      iter #   8 total cpu time :  1178.8 secs   av.it.:   9.4
      thresh= 2.837E-09 alpha_mix =  0.700 |ddv_scf|^2 =  5.375E-17

     End of self-consistent calculation

     Convergence has been achieved 


     Representation #  17 mode #  17

     Self-consistent Calculation

      iter #   1 total cpu time :  1185.0 secs   av.it.:   3.9
      thresh= 1.000E-02 alpha_mix =  0.700 |ddv_scf|^2 =  5.988E-07

      iter #   2 total cpu time :  1191.8 secs   av.it.:   9.3
      thresh= 7.738E-05 alpha_mix =  0.700 |ddv_scf|^2 =  9.109E-07

      iter #   3 total cpu time :  1200.6 secs   av.it.:   8.4
      thresh= 9.544E-05 alpha_mix =  0.700 |ddv_scf|^2 =  1.569E-09

      iter #   4 total cpu time :  1210.0 secs   av.it.:   9.1
      thresh= 3.961E-06 alpha_mix =  0.700 |ddv_scf|^2 =  5.160E-11

      iter #   5 total cpu time :  1217.5 secs   av.it.:   9.3
      thresh= 7.184E-07 alpha_mix =  0.700 |ddv_scf|^2 =  9.227E-13

      iter #   6 total cpu time :  1223.7 secs   av.it.:   9.4
      thresh= 9.606E-08 alpha_mix =  0.700 |ddv_scf|^2 =  1.664E-14

      iter #   7 total cpu time :  1234.0 secs   av.it.:   9.4
      thresh= 1.290E-08 alpha_mix =  0.700 |ddv_scf|^2 =  1.811E-15

      iter #   8 total cpu time :  1246.7 secs   av.it.:   9.4
      thresh= 4.255E-09 alpha_mix =  0.700 |ddv_scf|^2 =  1.203E-15

      iter #   9 total cpu time :  1258.1 secs   av.it.:   8.5
      thresh= 3.468E-09 alpha_mix =  0.700 |ddv_scf|^2 =  6.010E-18

     End of self-consistent calculation

     Convergence has been achieved 


     Representation #  18 mode #  18

     Self-consistent Calculation

      iter #   1 total cpu time :  1266.4 secs   av.it.:   4.0
      thresh= 1.000E-02 alpha_mix =  0.700 |ddv_scf|^2 =  6.568E-07

      iter #   2 total cpu time :  1275.9 secs   av.it.:   9.2
      thresh= 8.105E-05 alpha_mix =  0.700 |ddv_scf|^2 =  9.424E-07

      iter #   3 total cpu time :  1285.9 secs   av.it.:   8.4
      thresh= 9.708E-05 alpha_mix =  0.700 |ddv_scf|^2 =  3.235E-09

      iter #   4 total cpu time :  1294.7 secs   av.it.:   8.8
      thresh= 5.688E-06 alpha_mix =  0.700 |ddv_scf|^2 =  6.933E-11

      iter #   5 total cpu time :  1301.4 secs   av.it.:   9.2
      thresh= 8.327E-07 alpha_mix =  0.700 |ddv_scf|^2 =  1.867E-12

      iter #   6 total cpu time :  1309.0 secs   av.it.:   9.0
      thresh= 1.366E-07 alpha_mix =  0.700 |ddv_scf|^2 =  2.533E-14

      iter #   7 total cpu time :  1318.8 secs   av.it.:   9.3
      thresh= 1.591E-08 alpha_mix =  0.700 |ddv_scf|^2 =  1.867E-15

      iter #   8 total cpu time :  1328.1 secs   av.it.:   9.2
      thresh= 4.321E-09 alpha_mix =  0.700 |ddv_scf|^2 =  1.981E-17

     End of self-consistent calculation

     Convergence has been achieved 


     Representation #  19 mode #  19

     Self-consistent Calculation

      iter #   1 total cpu time :  1335.5 secs   av.it.:   6.7
      thresh= 1.000E-02 alpha_mix =  0.700 |ddv_scf|^2 =  1.217E-04

      iter #   2 total cpu time :  1343.3 secs   av.it.:   9.3
      thresh= 1.103E-03 alpha_mix =  0.700 |ddv_scf|^2 =  2.043E-04

      iter #   3 total cpu time :  1351.9 secs   av.it.:   8.3
      thresh= 1.429E-03 alpha_mix =  0.700 |ddv_scf|^2 =  5.556E-08

      iter #   4 total cpu time :  1362.5 secs   av.it.:   9.6
      thresh= 2.357E-05 alpha_mix =  0.700 |ddv_scf|^2 =  2.221E-09

      iter #   5 total cpu time :  1371.3 secs   av.it.:   8.8
      thresh= 4.713E-06 alpha_mix =  0.700 |ddv_scf|^2 =  3.146E-11

      iter #   6 total cpu time :  1379.2 secs   av.it.:   9.2
      thresh= 5.609E-07 alpha_mix =  0.700 |ddv_scf|^2 =  1.327E-12

      iter #   7 total cpu time :  1389.3 secs   av.it.:   8.8
      thresh= 1.152E-07 alpha_mix =  0.700 |ddv_scf|^2 =  2.627E-14

      iter #   8 total cpu time :  1399.5 secs   av.it.:   9.0
      thresh= 1.621E-08 alpha_mix =  0.700 |ddv_scf|^2 =  4.054E-16

      iter #   9 total cpu time :  1407.4 secs   av.it.:   9.1
      thresh= 2.013E-09 alpha_mix =  0.700 |ddv_scf|^2 =  1.120E-17

     End of self-consistent calculation

     Convergence has been achieved 


     Representation #  20 mode #  20

     Self-consistent Calculation

      iter #   1 total cpu time :  1413.8 secs   av.it.:   3.9
      thresh= 1.000E-02 alpha_mix =  0.700 |ddv_scf|^2 =  1.044E-06

      iter #   2 total cpu time :  1422.7 secs   av.it.:   9.2
      thresh= 1.022E-04 alpha_mix =  0.700 |ddv_scf|^2 =  1.688E-06

      iter #   3 total cpu time :  1432.0 secs   av.it.:   8.3
      thresh= 1.299E-04 alpha_mix =  0.700 |ddv_scf|^2 =  8.310E-10

      iter #   4 total cpu time :  1440.8 secs   av.it.:   9.1
      thresh= 2.883E-06 alpha_mix =  0.700 |ddv_scf|^2 =  4.463E-11

      iter #   5 total cpu time :  1448.4 secs   av.it.:   9.3
      thresh= 6.681E-07 alpha_mix =  0.700 |ddv_scf|^2 =  8.916E-13

      iter #   6 total cpu time :  1458.6 secs   av.it.:   9.3
      thresh= 9.442E-08 alpha_mix =  0.700 |ddv_scf|^2 =  1.261E-14

      iter #   7 total cpu time :  1468.9 secs   av.it.:   9.5
      thresh= 1.123E-08 alpha_mix =  0.700 |ddv_scf|^2 =  1.175E-15

      iter #   8 total cpu time :  1478.0 secs   av.it.:   9.4
      thresh= 3.428E-09 alpha_mix =  0.700 |ddv_scf|^2 =  5.365E-16

      iter #   9 total cpu time :  1484.7 secs   av.it.:   8.5
      thresh= 2.316E-09 alpha_mix =  0.700 |ddv_scf|^2 =  1.183E-17

     End of self-consistent calculation

     Convergence has been achieved 


     Representation #  21 mode #  21

     Self-consistent Calculation

      iter #   1 total cpu time :  1492.9 secs   av.it.:   3.9
      thresh= 1.000E-02 alpha_mix =  0.700 |ddv_scf|^2 =  8.593E-07

      iter #   2 total cpu time :  1502.0 secs   av.it.:   9.2
      thresh= 9.270E-05 alpha_mix =  0.700 |ddv_scf|^2 =  1.393E-06

      iter #   3 total cpu time :  1511.4 secs   av.it.:   8.3
      thresh= 1.180E-04 alpha_mix =  0.700 |ddv_scf|^2 =  7.366E-10

      iter #   4 total cpu time :  1518.8 secs   av.it.:   9.4
      thresh= 2.714E-06 alpha_mix =  0.700 |ddv_scf|^2 =  3.838E-11

      iter #   5 total cpu time :  1529.4 secs   av.it.:   9.3
      thresh= 6.195E-07 alpha_mix =  0.700 |ddv_scf|^2 =  3.732E-13

      iter #   6 total cpu time :  1541.5 secs   av.it.:   9.5
      thresh= 6.109E-08 alpha_mix =  0.700 |ddv_scf|^2 =  1.170E-14

      iter #   7 total cpu time :  1552.4 secs   av.it.:   9.5
      thresh= 1.081E-08 alpha_mix =  0.700 |ddv_scf|^2 =  5.745E-16

      iter #   8 total cpu time :  1560.7 secs   av.it.:   9.5
      thresh= 2.397E-09 alpha_mix =  0.700 |ddv_scf|^2 =  3.083E-16

      iter #   9 total cpu time :  1570.3 secs   av.it.:   8.5
      thresh= 1.756E-09 alpha_mix =  0.700 |ddv_scf|^2 =  9.370E-18

     End of self-consistent calculation

     Convergence has been achieved 
 
     Number of q in the star =   12
     List of q in the star:
          1  -0.866025404  -0.216506351  -0.216506351
          2  -0.216506351   0.866025404  -0.216506351
          3   0.216506351   0.866025404  -0.216506351
          4   0.866025404   0.216506351  -0.216506351
          5  -0.216506351   0.216506351   0.866025404
          6   0.216506351   0.216506351  -0.866025404
          7  -0.216506351  -0.216506351  -0.866025404
          8  -0.216506351   0.866025404   0.216506351
          9   0.216506351  -0.866025404   0.216506351
         10   0.866025404  -0.216506351   0.216506351
         11  -0.866025404   0.216506351   0.216506351
         12   0.216506351  -0.216506351   0.866025404

     Diagonalizing the dynamical matrix

     q = (   -0.866025404  -0.216506351  -0.216506351 ) 

 **************************************************************************
     freq (    1) =       8.368385 [THz] =     279.139272 [cm-1]
     freq (    2) =      10.123598 [THz] =     337.686883 [cm-1]
     freq (    3) =      11.597714 [THz] =     386.858088 [cm-1]
     freq (    4) =      21.323887 [THz] =     711.288297 [cm-1]
     freq (    5) =      28.292902 [THz] =     943.749617 [cm-1]
     freq (    6) =      30.318653 [THz] =    1011.321398 [cm-1]
     freq (    7) =      31.055340 [THz] =    1035.894625 [cm-1]
     freq (    8) =      33.981824 [THz] =    1133.511627 [cm-1]
     freq (    9) =      35.123645 [THz] =    1171.598700 [cm-1]
     freq (   10) =      40.269276 [THz] =    1343.238476 [cm-1]
     freq (   11) =      40.657208 [THz] =    1356.178492 [cm-1]
     freq (   12) =      42.303699 [THz] =    1411.099511 [cm-1]
     freq (   13) =      42.472214 [THz] =    1416.720552 [cm-1]
     freq (   14) =      43.505878 [THz] =    1451.199880 [cm-1]
     freq (   15) =      44.578230 [THz] =    1486.969702 [cm-1]
     freq (   16) =      44.645714 [THz] =    1489.220707 [cm-1]
     freq (   17) =      46.352141 [THz] =    1546.141006 [cm-1]
     freq (   18) =      47.973813 [THz] =    1600.234139 [cm-1]
     freq (   19) =      53.929795 [THz] =    1798.904336 [cm-1]
     freq (   20) =      55.226880 [THz] =    1842.170440 [cm-1]
     freq (   21) =      58.520501 [THz] =    1952.033800 [cm-1]
 **************************************************************************

     Mode symmetry, C_2v (mm2)  point group:

     freq (   1-   1) =        279.1  [cm-1]   --> B_1  D_3  S_3      
     freq (   2-   2) =        337.7  [cm-1]   --> A_1  D_1  S_1      
     freq (   3-   3) =        386.9  [cm-1]   --> B_2  D_4  S_4      
     freq (   4-   4) =        711.3  [cm-1]   --> B_2  D_4  S_4      
     freq (   5-   5) =        943.7  [cm-1]   --> A_2  D_2  S_2      
     freq (   6-   6) =       1011.3  [cm-1]   --> A_2  D_2  S_2      
     freq (   7-   7) =       1035.9  [cm-1]   --> A_1  D_1  S_1      
     freq (   8-   8) =       1133.5  [cm-1]   --> A_1  D_1  S_1      
     freq (   9-   9) =       1171.6  [cm-1]   --> B_1  D_3  S_3      
     freq (  10-  10) =       1343.2  [cm-1]   --> B_2  D_4  S_4      
     freq (  11-  11) =       1356.2  [cm-1]   --> A_2  D_2  S_2      
     freq (  12-  12) =       1411.1  [cm-1]   --> A_1  D_1  S_1      
     freq (  13-  13) =       1416.7  [cm-1]   --> B_1  D_3  S_3      
     freq (  14-  14) =       1451.2  [cm-1]   --> B_2  D_4  S_4      
     freq (  15-  15) =       1487.0  [cm-1]   --> A_2  D_2  S_2      
     freq (  16-  16) =       1489.2  [cm-1]   --> A_1  D_1  S_1      
     freq (  17-  17) =       1546.1  [cm-1]   --> B_2  D_4  S_4      
     freq (  18-  18) =       1600.2  [cm-1]   --> B_1  D_3  S_3      
     freq (  19-  19) =       1798.9  [cm-1]   --> A_1  D_1  S_1      
     freq (  20-  20) =       1842.2  [cm-1]   --> B_2  D_4  S_4      
     freq (  21-  21) =       1952.0  [cm-1]   --> A_1  D_1  S_1      
     electron-phonon interaction  ...

     Gaussian Broadening:   0.005 Ry, ngauss=   0
     DOS =  1.900675 states/spin/Ry/Unit Cell at Ef= 17.155196 eV
     lambda(    1)=  0.0390   gamma=    4.95 GHz
     lambda(    2)=  0.3172   gamma=   59.00 GHz
     lambda(    3)=  0.0261   gamma=    6.38 GHz
     lambda(    4)=  0.9352   gamma=  771.81 GHz
     lambda(    5)=  0.0580   gamma=   84.30 GHz
     lambda(    6)=  0.0336   gamma=   56.13 GHz
     lambda(    7)=  0.2926   gamma=  512.20 GHz
     lambda(    8)=  0.1167   gamma=  244.52 GHz
     lambda(    9)=  0.0838   gamma=  187.73 GHz
     lambda(   10)=  0.0022   gamma=    6.62 GHz
     lambda(   11)=  0.0004   gamma=    1.26 GHz
     lambda(   12)=  0.0007   gamma=    2.35 GHz
     lambda(   13)=  0.0007   gamma=    2.36 GHz
     lambda(   14)=  0.0131   gamma=   44.92 GHz
     lambda(   15)=  0.0006   gamma=    2.12 GHz
     lambda(   16)=  0.0142   gamma=   51.23 GHz
     lambda(   17)=  0.0227   gamma=   88.38 GHz
     lambda(   18)=  0.0022   gamma=    9.28 GHz
     lambda(   19)=  0.0325   gamma=  171.50 GHz
     lambda(   20)=  0.0069   gamma=   38.30 GHz
     lambda(   21)=  0.0337   gamma=  209.20 GHz
     Gaussian Broadening:   0.010 Ry, ngauss=   0
     DOS =  2.130656 states/spin/Ry/Unit Cell at Ef= 17.149400 eV
     lambda(    1)=  0.0871   gamma=   12.41 GHz
     lambda(    2)=  0.2824   gamma=   58.89 GHz
     lambda(    3)=  0.0314   gamma=    8.60 GHz
     lambda(    4)=  1.0222   gamma=  945.72 GHz
     lambda(    5)=  0.1110   gamma=  180.76 GHz
     lambda(    6)=  0.0928   gamma=  173.66 GHz
     lambda(    7)=  0.2565   gamma=  503.41 GHz
     lambda(    8)=  0.1178   gamma=  276.74 GHz
     lambda(    9)=  0.0933   gamma=  234.11 GHz
     lambda(   10)=  0.0041   gamma=   13.58 GHz
     lambda(   11)=  0.0022   gamma=    7.37 GHz
     lambda(   12)=  0.0027   gamma=    9.66 GHz
     lambda(   13)=  0.0034   gamma=   12.61 GHz
     lambda(   14)=  0.0142   gamma=   54.79 GHz
     lambda(   15)=  0.0016   gamma=    6.55 GHz
     lambda(   16)=  0.0256   gamma=  103.82 GHz
     lambda(   17)=  0.0194   gamma=   84.70 GHz
     lambda(   18)=  0.0060   gamma=   27.97 GHz
     lambda(   19)=  0.0289   gamma=  171.13 GHz
     lambda(   20)=  0.0105   gamma=   65.28 GHz
     lambda(   21)=  0.0232   gamma=  161.54 GHz
     Gaussian Broadening:   0.015 Ry, ngauss=   0
     DOS =  2.235086 states/spin/Ry/Unit Cell at Ef= 17.146382 eV
     lambda(    1)=  0.1117   gamma=   16.70 GHz
     lambda(    2)=  0.2612   gamma=   57.14 GHz
     lambda(    3)=  0.0301   gamma=    8.65 GHz
     lambda(    4)=  0.9280   gamma=  900.61 GHz
     lambda(    5)=  0.1530   gamma=  261.43 GHz
     lambda(    6)=  0.1396   gamma=  273.84 GHz
     lambda(    7)=  0.2367   gamma=  487.17 GHz
     lambda(    8)=  0.1281   gamma=  315.69 GHz
     lambda(    9)=  0.1041   gamma=  274.11 GHz
     lambda(   10)=  0.0054   gamma=   18.70 GHz
     lambda(   11)=  0.0034   gamma=   12.12 GHz
     lambda(   12)=  0.0040   gamma=   15.12 GHz
     lambda(   13)=  0.0044   gamma=   17.12 GHz
     lambda(   14)=  0.0124   gamma=   50.28 GHz
     lambda(   15)=  0.0023   gamma=    9.77 GHz
     lambda(   16)=  0.0302   gamma=  128.46 GHz
     lambda(   17)=  0.0170   gamma=   78.16 GHz
     lambda(   18)=  0.0075   gamma=   36.88 GHz
     lambda(   19)=  0.0276   gamma=  171.35 GHz
     lambda(   20)=  0.0135   gamma=   87.60 GHz
     lambda(   21)=  0.0201   gamma=  146.72 GHz
     Gaussian Broadening:   0.020 Ry, ngauss=   0
     DOS =  2.290454 states/spin/Ry/Unit Cell at Ef= 17.145317 eV
     lambda(    1)=  0.1226   gamma=   18.78 GHz
     lambda(    2)=  0.2547   gamma=   57.10 GHz
     lambda(    3)=  0.0284   gamma=    8.36 GHz
     lambda(    4)=  0.8860   gamma=  881.13 GHz
     lambda(    5)=  0.1784   gamma=  312.40 GHz
     lambda(    6)=  0.1688   gamma=  339.31 GHz
     lambda(    7)=  0.2324   gamma=  490.24 GHz
     lambda(    8)=  0.1380   gamma=  348.47 GHz
     lambda(    9)=  0.1103   gamma=  297.76 GHz
     lambda(   10)=  0.0063   gamma=   22.38 GHz
     lambda(   11)=  0.0043   gamma=   15.41 GHz
     lambda(   12)=  0.0046   gamma=   18.12 GHz
     lambda(   13)=  0.0050   gamma=   19.81 GHz
     lambda(   14)=  0.0116   gamma=   47.99 GHz
     lambda(   15)=  0.0030   gamma=   13.05 GHz
     lambda(   16)=  0.0324   gamma=  141.14 GHz
     lambda(   17)=  0.0169   gamma=   79.36 GHz
     lambda(   18)=  0.0081   gamma=   41.00 GHz
     lambda(   19)=  0.0284   gamma=  180.89 GHz
     lambda(   20)=  0.0153   gamma=  102.28 GHz
     lambda(   21)=  0.0200   gamma=  149.65 GHz
     Gaussian Broadening:   0.025 Ry, ngauss=   0
     DOS =  2.332190 states/spin/Ry/Unit Cell at Ef= 17.144758 eV
     lambda(    1)=  0.1308   gamma=   20.40 GHz
     lambda(    2)=  0.2532   gamma=   57.79 GHz
     lambda(    3)=  0.0275   gamma=    8.23 GHz
     lambda(    4)=  0.8675   gamma=  878.47 GHz
     lambda(    5)=  0.1941   gamma=  346.12 GHz
     lambda(    6)=  0.1845   gamma=  377.67 GHz
     lambda(    7)=  0.2322   gamma=  498.68 GHz
     lambda(    8)=  0.1456   gamma=  374.55 GHz
     lambda(    9)=  0.1170   gamma=  321.39 GHz
     lambda(   10)=  0.0068   gamma=   24.38 GHz
     lambda(   11)=  0.0048   gamma=   17.61 GHz
     lambda(   12)=  0.0050   gamma=   19.84 GHz
     lambda(   13)=  0.0055   gamma=   22.18 GHz
     lambda(   14)=  0.0113   gamma=   47.66 GHz
     lambda(   15)=  0.0035   gamma=   15.49 GHz
     lambda(   16)=  0.0337   gamma=  149.46 GHz
     lambda(   17)=  0.0172   gamma=   82.18 GHz
     lambda(   18)=  0.0087   gamma=   44.65 GHz
     lambda(   19)=  0.0295   gamma=  190.79 GHz
     lambda(   20)=  0.0165   gamma=  112.24 GHz
     lambda(   21)=  0.0206   gamma=  156.87 GHz
     Gaussian Broadening:   0.030 Ry, ngauss=   0
     DOS =  2.360595 states/spin/Ry/Unit Cell at Ef= 17.144134 eV
     lambda(    1)=  0.1369   gamma=   21.61 GHz
     lambda(    2)=  0.2522   gamma=   58.27 GHz
     lambda(    3)=  0.0269   gamma=    8.16 GHz
     lambda(    4)=  0.8541   gamma=  875.43 GHz
     lambda(    5)=  0.2023   gamma=  365.01 GHz
     lambda(    6)=  0.1915   gamma=  396.88 GHz
     lambda(    7)=  0.2322   gamma=  504.87 GHz
     lambda(    8)=  0.1502   gamma=  390.96 GHz
     lambda(    9)=  0.1226   gamma=  340.99 GHz
     lambda(   10)=  0.0069   gamma=   25.28 GHz
     lambda(   11)=  0.0051   gamma=   19.05 GHz
     lambda(   12)=  0.0051   gamma=   20.72 GHz
     lambda(   13)=  0.0060   gamma=   24.21 GHz
     lambda(   14)=  0.0113   gamma=   48.08 GHz
     lambda(   15)=  0.0038   gamma=   17.18 GHz
     lambda(   16)=  0.0343   gamma=  153.91 GHz
     lambda(   17)=  0.0175   gamma=   84.58 GHz
     lambda(   18)=  0.0092   gamma=   47.88 GHz
     lambda(   19)=  0.0301   gamma=  197.21 GHz
     lambda(   20)=  0.0171   gamma=  117.72 GHz
     lambda(   21)=  0.0211   gamma=  163.18 GHz
     Gaussian Broadening:   0.035 Ry, ngauss=   0
     DOS =  2.381114 states/spin/Ry/Unit Cell at Ef= 17.143351 eV
     lambda(    1)=  0.1415   gamma=   22.52 GHz
     lambda(    2)=  0.2510   gamma=   58.48 GHz
     lambda(    3)=  0.0265   gamma=    8.11 GHz
     lambda(    4)=  0.8415   gamma=  870.00 GHz
     lambda(    5)=  0.2059   gamma=  374.71 GHz
     lambda(    6)=  0.1944   gamma=  406.31 GHz
     lambda(    7)=  0.2321   gamma=  508.89 GHz
     lambda(    8)=  0.1525   gamma=  400.42 GHz
     lambda(    9)=  0.1268   gamma=  355.73 GHz
     lambda(   10)=  0.0070   gamma=   25.76 GHz
     lambda(   11)=  0.0054   gamma=   20.15 GHz
     lambda(   12)=  0.0052   gamma=   21.20 GHz
     lambda(   13)=  0.0063   gamma=   25.95 GHz
     lambda(   14)=  0.0114   gamma=   48.91 GHz
     lambda(   15)=  0.0041   gamma=   18.51 GHz
     lambda(   16)=  0.0344   gamma=  156.06 GHz
     lambda(   17)=  0.0177   gamma=   86.43 GHz
     lambda(   18)=  0.0097   gamma=   50.66 GHz
     lambda(   19)=  0.0304   gamma=  201.32 GHz
     lambda(   20)=  0.0174   gamma=  120.50 GHz
     lambda(   21)=  0.0216   gamma=  168.45 GHz
     Gaussian Broadening:   0.040 Ry, ngauss=   0
     DOS =  2.398900 states/spin/Ry/Unit Cell at Ef= 17.142416 eV
     lambda(    1)=  0.1451   gamma=   23.29 GHz
     lambda(    2)=  0.2493   gamma=   58.53 GHz
     lambda(    3)=  0.0263   gamma=    8.11 GHz
     lambda(    4)=  0.8295   gamma=  864.00 GHz
     lambda(    5)=  0.2075   gamma=  380.47 GHz
     lambda(    6)=  0.1957   gamma=  412.14 GHz
     lambda(    7)=  0.2316   gamma=  511.78 GHz
     lambda(    8)=  0.1537   gamma=  406.52 GHz
     lambda(    9)=  0.1302   gamma=  367.90 GHz
     lambda(   10)=  0.0070   gamma=   26.19 GHz
     lambda(   11)=  0.0056   gamma=   21.15 GHz
     lambda(   12)=  0.0053   gamma=   21.56 GHz
     lambda(   13)=  0.0067   gamma=   27.60 GHz
     lambda(   14)=  0.0116   gamma=   50.13 GHz
     lambda(   15)=  0.0043   gamma=   19.72 GHz
     lambda(   16)=  0.0345   gamma=  157.36 GHz
     lambda(   17)=  0.0179   gamma=   87.96 GHz
     lambda(   18)=  0.0101   gamma=   53.22 GHz
     lambda(   19)=  0.0307   gamma=  204.76 GHz
     lambda(   20)=  0.0175   gamma=  122.12 GHz
     lambda(   21)=  0.0221   gamma=  173.34 GHz
     Gaussian Broadening:   0.045 Ry, ngauss=   0
     DOS =  2.416850 states/spin/Ry/Unit Cell at Ef= 17.141341 eV
     lambda(    1)=  0.1486   gamma=   24.01 GHz
     lambda(    2)=  0.2473   gamma=   58.49 GHz
     lambda(    3)=  0.0263   gamma=    8.18 GHz
     lambda(    4)=  0.8183   gamma=  858.79 GHz
     lambda(    5)=  0.2086   gamma=  385.36 GHz
     lambda(    6)=  0.1967   gamma=  417.34 GHz
     lambda(    7)=  0.2310   gamma=  514.11 GHz
     lambda(    8)=  0.1545   gamma=  411.72 GHz
     lambda(    9)=  0.1333   gamma=  379.61 GHz
     lambda(   10)=  0.0071   gamma=   26.70 GHz
     lambda(   11)=  0.0058   gamma=   22.16 GHz
     lambda(   12)=  0.0053   gamma=   21.97 GHz
     lambda(   13)=  0.0070   gamma=   29.31 GHz
     lambda(   14)=  0.0119   gamma=   51.82 GHz
     lambda(   15)=  0.0046   gamma=   20.91 GHz
     lambda(   16)=  0.0345   gamma=  158.62 GHz
     lambda(   17)=  0.0180   gamma=   89.39 GHz
     lambda(   18)=  0.0105   gamma=   55.76 GHz
     lambda(   19)=  0.0311   gamma=  208.48 GHz
     lambda(   20)=  0.0175   gamma=  123.47 GHz
     lambda(   21)=  0.0225   gamma=  178.21 GHz
     Gaussian Broadening:   0.050 Ry, ngauss=   0
     DOS =  2.436152 states/spin/Ry/Unit Cell at Ef= 17.140123 eV
     lambda(    1)=  0.1519   gamma=   24.75 GHz
     lambda(    2)=  0.2450   gamma=   58.41 GHz
     lambda(    3)=  0.0266   gamma=    8.32 GHz
     lambda(    4)=  0.8083   gamma=  855.00 GHz
     lambda(    5)=  0.2099   gamma=  390.79 GHz
     lambda(    6)=  0.1978   gamma=  423.01 GHz
     lambda(    7)=  0.2301   gamma=  516.19 GHz
     lambda(    8)=  0.1553   gamma=  417.25 GHz
     lambda(    9)=  0.1365   gamma=  391.79 GHz
     lambda(   10)=  0.0072   gamma=   27.35 GHz
     lambda(   11)=  0.0060   gamma=   23.23 GHz
     lambda(   12)=  0.0054   gamma=   22.48 GHz
     lambda(   13)=  0.0074   gamma=   31.21 GHz
     lambda(   14)=  0.0123   gamma=   54.10 GHz
     lambda(   15)=  0.0048   gamma=   22.10 GHz
     lambda(   16)=  0.0345   gamma=  160.20 GHz
     lambda(   17)=  0.0182   gamma=   90.84 GHz
     lambda(   18)=  0.0109   gamma=   58.47 GHz
     lambda(   19)=  0.0315   gamma=  212.83 GHz
     lambda(   20)=  0.0176   gamma=  124.96 GHz
     lambda(   21)=  0.0230   gamma=  183.19 GHz
 
 
     Number of q in the star =   12
     List of q in the star:
          1  -0.866025404  -0.216506351  -0.216506351
          2  -0.216506351   0.866025404  -0.216506351
          3   0.216506351   0.866025404  -0.216506351
          4   0.866025404   0.216506351  -0.216506351
          5  -0.216506351   0.216506351   0.866025404
          6   0.216506351   0.216506351  -0.866025404
          7  -0.216506351  -0.216506351  -0.866025404
          8  -0.216506351   0.866025404   0.216506351
          9   0.216506351  -0.866025404   0.216506351
         10   0.866025404  -0.216506351   0.216506351
         11  -0.866025404   0.216506351   0.216506351
         12   0.216506351  -0.216506351   0.866025404
 
     init_run     :      0.06s CPU      0.18s WALL (       1 calls)
     electrons    :     12.87s CPU     14.31s WALL (       1 calls)

     Called by init_run:
     wfcinit      :      0.00s CPU      0.03s WALL (       1 calls)
     potinit      :      0.01s CPU      0.08s WALL (       1 calls)
     hinit0       :      0.03s CPU      0.04s WALL (       1 calls)

     Called by electrons:
     c_bands      :     12.85s CPU     14.29s WALL (       1 calls)
     v_of_rho     :      0.01s CPU      0.02s WALL (       2 calls)
     newd         :      0.01s CPU      0.06s WALL (       2 calls)

     Called by c_bands:
     init_us_2    :      1.86s CPU      2.08s WALL (   64670 calls)
     cegterg      :      8.97s CPU      9.69s WALL (     582 calls)

     Called by *egterg:
     cdiaghg      :      3.04s CPU      3.28s WALL (    9068 calls)
     h_psi        :    497.08s CPU    588.89s WALL (  652676 calls)
     s_psi        :     14.06s CPU     15.83s WALL ( 1346452 calls)
     g_psi        :      0.03s CPU      0.03s WALL (    8488 calls)

     Called by h_psi:
     h_psi:calbec :     12.21s CPU     13.65s WALL (  652676 calls)
     vloc_psi     :    472.57s CPU    561.44s WALL (  652676 calls)
     add_vuspsi   :      6.70s CPU      7.54s WALL (  652676 calls)

     General routines
     calbec       :     34.37s CPU     37.50s WALL ( 1431712 calls)
     fft          :      0.61s CPU      1.61s WALL (    3511 calls)
     ffts         :      0.35s CPU      0.39s WALL (    6925 calls)
     fftw         :    645.48s CPU    777.40s WALL ( 9357661 calls)
     interpolate  :      0.11s CPU      0.12s WALL (     373 calls)
     davcio       :      8.76s CPU    184.82s WALL (  276421 calls)
 
     Parallel routines
 
     PHONON       :  20m18.09s CPU  26m50.59s WALL

     INITIALIZATION: 
     phq_setup    :      0.01s CPU      0.03s WALL (       1 calls)
     phq_init     :      6.98s CPU      7.94s WALL (       1 calls)
 
     phq_init     :      6.98s CPU      7.94s WALL (       1 calls)
     set_drhoc    :      0.05s CPU      0.05s WALL (       3 calls)
     init_vloc    :      0.00s CPU      0.03s WALL (       2 calls)
     init_us_1    :      0.05s CPU      0.16s WALL (       2 calls)
     newd         :      0.01s CPU      0.06s WALL (       2 calls)
     dvanqq       :      0.19s CPU      0.19s WALL (       1 calls)
     drho         :      4.90s CPU      5.57s WALL (       1 calls)
 
     DYNAMICAL MATRIX:
     dynmat0      :      1.20s CPU      1.37s WALL (       1 calls)
     phqscf       :   1164.71s CPU   1545.17s WALL (       1 calls)
     dynmatrix    :      0.49s CPU      0.53s WALL (       1 calls)
 
     phqscf       :   1164.71s CPU   1545.17s WALL (       1 calls)
     solve_linter :   1152.81s CPU   1528.53s WALL (      21 calls)
     drhodv       :     11.87s CPU     14.36s WALL (      21 calls)
 
     dynmat0      :      1.20s CPU      1.37s WALL (       1 calls)
     dynmat_us    :      1.15s CPU      1.31s WALL (       1 calls)
     d2ionq       :      0.01s CPU      0.01s WALL (       1 calls)
     dynmatcc     :      0.04s CPU      0.04s WALL (       1 calls)
 
     dynmat_us    :      1.15s CPU      1.31s WALL (       1 calls)
     addusdynmat  :      0.00s CPU      0.00s WALL (       1 calls)
 
     phqscf       :   1164.71s CPU   1545.17s WALL (       1 calls)
     solve_linter :   1152.81s CPU   1528.53s WALL (      21 calls)
 
     solve_linter :   1152.81s CPU   1528.53s WALL (      21 calls)
     dvqpsi_us    :      9.27s CPU     10.09s WALL (    6090 calls)
     ortho        :     12.83s CPU     13.62s WALL (   50750 calls)
     cgsolve      :    541.21s CPU    638.65s WALL (   50750 calls)
     incdrhoscf   :     73.70s CPU     90.71s WALL (   50750 calls)
     addusddens   :      3.02s CPU      3.77s WALL (     196 calls)
     vpsifft      :    126.81s CPU    156.32s WALL (   50750 calls)
     dv_of_drho   :      0.46s CPU      0.49s WALL (     175 calls)
     mix_pot      :      6.21s CPU     37.46s WALL (     175 calls)
     psymdvscf    :      4.37s CPU      4.53s WALL (     175 calls)
     newdq        :      2.45s CPU      2.47s WALL (     175 calls)
     adddvscf     :      1.72s CPU      1.94s WALL (   50750 calls)
     drhodvus     :      1.70s CPU      4.20s WALL (      21 calls)
 
     dvqpsi_us    :      9.27s CPU     10.09s WALL (    6090 calls)
     dvqpsi_us_on :      3.46s CPU      3.68s WALL (    6090 calls)
 
     cgsolve      :    541.21s CPU    638.65s WALL (   50750 calls)
     ch_psi       :    532.95s CPU    629.28s WALL (  643026 calls)
 
     ch_psi       :    532.95s CPU    629.28s WALL (  643026 calls)
     h_psi        :    497.08s CPU    588.89s WALL (  652676 calls)
     last         :     27.22s CPU     30.53s WALL (  643026 calls)
 
     h_psi        :    497.08s CPU    588.89s WALL (  652676 calls)
     add_vuspsi   :      6.70s CPU      7.54s WALL (  652676 calls)
 
     incdrhoscf   :     73.70s CPU     90.71s WALL (   50750 calls)
     addusdbec    :      1.65s CPU      1.85s WALL (   56840 calls)
 
     drhodvus     :      1.70s CPU      4.20s WALL (      21 calls)
 
      Electron-phonon coupling
     elphel       :     39.79s CPU     57.03s WALL (      21 calls)
     elphsum      :     32.29s CPU     34.24s WALL (       1 calls)
 
      General routines
     calbec       :     34.37s CPU     37.50s WALL ( 1431712 calls)
     fft          :      0.61s CPU      1.61s WALL (    3511 calls)
     ffts         :      0.35s CPU      0.39s WALL (    6925 calls)
     fftw         :    645.48s CPU    777.40s WALL ( 9357661 calls)
     davcio       :      8.76s CPU    184.82s WALL (  276421 calls)
     write_rec    :      0.13s CPU     12.78s WALL (     196 calls)
 
 
     PHONON       :  20m18.09s CPU  26m50.59s WALL

 
   This run was terminated on:   5: 0:31  31Jul2022            

=------------------------------------------------------------------------------=
   JOB DONE.
=------------------------------------------------------------------------------=
