
     Program PHONON v.6.8 starts on 22Jul2022 at 11:12:30 

     This program is part of the open-source Quantum ESPRESSO suite
     for quantum simulation of materials; please cite
         "P. Giannozzi et al., J. Phys.:Condens. Matter 21 395502 (2009);
         "P. Giannozzi et al., J. Phys.:Condens. Matter 29 465901 (2017);
         "P. Giannozzi et al., J. Chem. Phys. 152 154105 (2020);
          URL http://www.quantum-espresso.org", 
     in publications or presentations arising from this work. More details at
     http://www.quantum-espresso.org/quote

     Parallel version (MPI), running on    48 processors

     MPI processes distributed on     1 nodes
     K-points division:     npool     =       4
     R & G space division:  proc/nbgrp/npool/nimage =      12
     188584 MiB available memory on the printing compute node when the environment starts
 
     Waiting for input...
     Reading input from standard input

     Reading xml data from directory:

     ./tmp/Ca1H6.save/

     IMPORTANT: XC functional enforced from input :
     Exchange-correlation= PBE
                           (   1   4   3   4   0   0   0)
     Any further DFT definition will be discarded
     Please, verify this is what you really want

 
     Parallelization info
     --------------------
     sticks:   dense  smooth     PW     G-vecs:    dense   smooth      PW
     Min         139      46     17                 3602      698     155
     Max         140      47     18                 3604      701     157
     Sum        1669     557    205                43227     8391    1865
 
     Using Slab Decomposition
 
     Reading collected, re-writing distributed wavefunctions

     Saving dvscf to file. Distribute only q points, not irreducible represetations.

     Calculation of q =   -0.8660254  -0.1082532  -0.1082532

     Subspace diagonalization in iterative solution of the eigenvalue problem:
     a serial algorithm will be used

 
     Parallelization info
     --------------------
     sticks:   dense  smooth     PW     G-vecs:    dense   smooth      PW
     Min         139      46     20                 3602      698     195
     Max         140      47     21                 3604      701     196
     Sum        1669     557    241                43227     8391    2347
 
     Using Slab Decomposition
 

     Title: 
     Electron-phonon coefficients for Ca1H6                                     


     bravais-lattice index     =            0
     lattice parameter (alat)  =       5.5613  a.u.
     unit-cell volume          =     132.4087 (a.u.)^3
     number of atoms/cell      =            7
     number of atomic types    =            2
     number of electrons       =        16.00
     number of Kohn-Sham states=           12
     kinetic-energy cutoff     =      60.0000  Ry
     charge density cutoff     =     720.0000  Ry
     Exchange-correlation= PBE
                           (   1   4   3   4   0   0   0)

     celldm(1)=   5.561340  celldm(2)=   0.000000  celldm(3)=   0.000000
     celldm(4)=   0.000000  celldm(5)=   0.000000  celldm(6)=   0.000000

     crystal axes: (cart. coord. in units of alat)
               a(1) = (  -0.577350   0.577350   0.577350 )  
               a(2) = (   0.577350  -0.577350   0.577350 )  
               a(3) = (   0.577350   0.577350  -0.577350 )  

     reciprocal axes: (cart. coord. in units 2 pi/alat)
               b(1) = ( -0.000000  0.866025  0.866025 )  
               b(2) = (  0.866025 -0.000000  0.866025 )  
               b(3) = (  0.866025  0.866025  0.000000 )  


     PseudoPot. # 1 for Ca read from file:
     /work/home/mayuan/code/my_script/scripts_tests/out2/200.0/pp/ca_pbe_v1.uspp.F.UPF
     MD5 check sum: 403a4c14b9e4d4dfdc3024c9a3812218
     Pseudo is Ultrasoft + core correction, Zval = 10.0
     Generated by new atomic code, or converted to UPF format
     Using radial grid of  845 points,  6 beta functions with: 
                l(1) =   0
                l(2) =   0
                l(3) =   1
                l(4) =   1
                l(5) =   2
                l(6) =   2
     Q(r) pseudized with  8 coefficients,  rinner =    1.500   1.500   1.500
                                                       1.500   1.500

     PseudoPot. # 2 for H  read from file:
     /work/home/mayuan/code/my_script/scripts_tests/out2/200.0/pp/h_pbe_v1.uspp.F.UPF
     MD5 check sum: 3408e3ff4ec8b0a4e358431e7e038a48
     Pseudo is Ultrasoft, Zval =  1.0
     Generated by new atomic code, or converted to UPF format
     Using radial grid of  615 points,  2 beta functions with: 
                l(1) =   0
                l(2) =   0
     Q(r) pseudized with  8 coefficients,  rinner =    0.700

     atomic species   valence    mass     pseudopotential
        Ca            10.00    40.07800     Ca( 1.00)
        H              1.00     1.00794     H ( 1.00)

     48 Sym. Ops., with inversion, found



   Cartesian axes

     site n.     atom                  positions (alat units)
         1           Ca  tau(   1) = (   0.0000000   0.0000000   0.0000000  )
         2           H   tau(   2) = (   0.2886751   0.0000000   0.5773503  )
         3           H   tau(   3) = (   0.2886751   0.5773503   0.0000000  )
         4           H   tau(   4) = (   0.5773503   0.2886751   0.0000000  )
         5           H   tau(   5) = (   0.0000000   0.2886751   0.5773503  )
         6           H   tau(   6) = (   0.0000000   0.5773503   0.2886751  )
         7           H   tau(   7) = (   0.5773503   0.0000000   0.2886751  )

     number of k points=  2320  Methfessel-Paxton smearing, width (Ry)=  0.0200

     Number of k-points >= 100: set verbosity='high' to print them.

     Dense  grid:    43227 G-vectors     FFT dimensions: (  48,  48,  48)

     Smooth grid:     8391 G-vectors     FFT dimensions: (  27,  27,  27)

     Estimated max dynamical RAM per process >       8.42 MB

     Estimated total dynamical RAM >     404.10 MB

     The potential is recalculated from file :
     ./tmp/_ph0/Ca1H6.save/charge-density

     Starting wfcs are   16 atomic wfcs

     Band Structure Calculation
     Davidson diagonalization with overlap

     ethr =  6.25E-11,  avg # of iterations = 14.9

     total cpu time spent up to now is       19.2 secs

     End of band structure calculation

     Number of k-points >= 100: set verbosity='high' to print the bands.

     the Fermi energy is    17.0980 ev

     Writing output data file ./tmp/_ph0/Ca1H6.save/

     Electron-phonon coefficients for Ca1H6                                     

     bravais-lattice index     =            0
     lattice parameter (alat)  =       5.5613  a.u.
     unit-cell volume          =     132.4087 (a.u.)^3
     number of atoms/cell      =            7
     number of atomic types    =            2
     kinetic-energy cut-off    =      60.0000  Ry
     charge density cut-off    =     720.0000  Ry
     convergence threshold     =      1.0E-16
     beta                      =       0.7000
     number of iterations used =            4
     Exchange-correlation= PBE
                           (   1   4   3   4   0   0   0)


     celldm(1)=    5.56134  celldm(2)=    0.00000  celldm(3)=    0.00000
     celldm(4)=    0.00000  celldm(5)=    0.00000  celldm(6)=    0.00000

     crystal axes: (cart. coord. in units of alat)
               a(1) = ( -0.5774  0.5774  0.5774 )  
               a(2) = (  0.5774 -0.5774  0.5774 )  
               a(3) = (  0.5774  0.5774 -0.5774 )  

     reciprocal axes: (cart. coord. in units 2 pi/alat)
               b(1) = ( -0.0000  0.8660  0.8660 )  
               b(2) = (  0.8660 -0.0000  0.8660 )  
               b(3) = (  0.8660  0.8660  0.0000 )  


     Atoms inside the unit cell: 

     Cartesian axes

     site n.  atom      mass           positions (alat units)
        1     Ca  40.0780   tau(    1) = (    0.00000    0.00000    0.00000  )
        2     H    1.0079   tau(    2) = (    0.28868    0.00000    0.57735  )
        3     H    1.0079   tau(    3) = (    0.28868    0.57735    0.00000  )
        4     H    1.0079   tau(    4) = (    0.57735    0.28868    0.00000  )
        5     H    1.0079   tau(    5) = (    0.00000    0.28868    0.57735  )
        6     H    1.0079   tau(    6) = (    0.00000    0.57735    0.28868  )
        7     H    1.0079   tau(    7) = (    0.57735    0.00000    0.28868  )

     Computing dynamical matrix for 
                    q = (  -0.8660254  -0.1082532  -0.1082532 )
 
      4 Sym.Ops. (no q -> -q+G )


     G cutoff =  564.0682  (   3604 G-vectors)     FFT grid: ( 48, 48, 48)
     G cutoff =  188.0227  (    699 G-vectors)  smooth grid: ( 27, 27, 27)

     number of k points=  2320  Methfessel-Paxton smearing, width (Ry)=  0.0200

     PseudoPot. # 1 for Ca read from file:
     /work/home/mayuan/code/my_script/scripts_tests/out2/200.0/pp/ca_pbe_v1.uspp.F.UPF
     MD5 check sum: 403a4c14b9e4d4dfdc3024c9a3812218
     Pseudo is Ultrasoft + core correction, Zval = 10.0
     Generated by new atomic code, or converted to UPF format
     Using radial grid of  845 points,  6 beta functions with: 
                l(1) =   0
                l(2) =   0
                l(3) =   1
                l(4) =   1
                l(5) =   2
                l(6) =   2
     Q(r) pseudized with  8 coefficients,  rinner =    1.500   1.500   1.500
                                                       1.500   1.500

     PseudoPot. # 2 for H  read from file:
     /work/home/mayuan/code/my_script/scripts_tests/out2/200.0/pp/h_pbe_v1.uspp.F.UPF
     MD5 check sum: 3408e3ff4ec8b0a4e358431e7e038a48
     Pseudo is Ultrasoft, Zval =  1.0
     Generated by new atomic code, or converted to UPF format
     Using radial grid of  615 points,  2 beta functions with: 
                l(1) =   0
                l(2) =   0
     Q(r) pseudized with  8 coefficients,  rinner =    0.700

     Mode symmetry, C_2v (mm2)  point group:


     Atomic displacements:
     There are   21 irreducible representations

     Representation     1      1 modes -  To be done

     Representation     2      1 modes -  To be done

     Representation     3      1 modes -  To be done

     Representation     4      1 modes -  To be done

     Representation     5      1 modes -  To be done

     Representation     6      1 modes -  To be done

     Representation     7      1 modes -  To be done

     Representation     8      1 modes -  To be done

     Representation     9      1 modes -  To be done

     Representation    10      1 modes -  To be done

     Representation    11      1 modes -  To be done

     Representation    12      1 modes -  To be done

     Representation    13      1 modes -  To be done

     Representation    14      1 modes -  To be done

     Representation    15      1 modes -  To be done

     Representation    16      1 modes -  To be done

     Representation    17      1 modes -  To be done

     Representation    18      1 modes -  To be done

     Representation    19      1 modes -  To be done

     Representation    20      1 modes -  To be done

     Representation    21      1 modes -  To be done



     Alpha used in Ewald sum =   2.8000
     PHONON       :     33.97s CPU     41.92s WALL



     Representation #   1 mode #   1

     Self-consistent Calculation

      iter #   1 total cpu time :    51.9 secs   av.it.:   4.0
      thresh= 1.000E-02 alpha_mix =  0.700 |ddv_scf|^2 =  5.910E-07

      iter #   2 total cpu time :    78.4 secs   av.it.:   9.5
      thresh= 7.687E-05 alpha_mix =  0.700 |ddv_scf|^2 =  2.298E-07

      iter #   3 total cpu time :   104.6 secs   av.it.:   9.3
      thresh= 4.794E-05 alpha_mix =  0.700 |ddv_scf|^2 =  2.165E-09

      iter #   4 total cpu time :   133.8 secs   av.it.:   9.4
      thresh= 4.653E-06 alpha_mix =  0.700 |ddv_scf|^2 =  3.131E-10

      iter #   5 total cpu time :   160.5 secs   av.it.:   9.2
      thresh= 1.769E-06 alpha_mix =  0.700 |ddv_scf|^2 =  7.906E-12

      iter #   6 total cpu time :   182.5 secs   av.it.:   9.5
      thresh= 2.812E-07 alpha_mix =  0.700 |ddv_scf|^2 =  5.559E-13

      iter #   7 total cpu time :   206.7 secs   av.it.:   9.6
      thresh= 7.456E-08 alpha_mix =  0.700 |ddv_scf|^2 =  9.313E-15

      iter #   8 total cpu time :   232.1 secs   av.it.:   9.7
      thresh= 9.650E-09 alpha_mix =  0.700 |ddv_scf|^2 =  4.611E-16

      iter #   9 total cpu time :   256.7 secs   av.it.:   9.6
      thresh= 2.147E-09 alpha_mix =  0.700 |ddv_scf|^2 =  2.108E-17

     End of self-consistent calculation

     Convergence has been achieved 


     Representation #   2 mode #   2

     Self-consistent Calculation

      iter #   1 total cpu time :   277.3 secs   av.it.:   4.1
      thresh= 1.000E-02 alpha_mix =  0.700 |ddv_scf|^2 =  4.073E-07

      iter #   2 total cpu time :   294.0 secs   av.it.:   9.6
      thresh= 6.382E-05 alpha_mix =  0.700 |ddv_scf|^2 =  2.443E-07

      iter #   3 total cpu time :   311.3 secs   av.it.:   9.1
      thresh= 4.943E-05 alpha_mix =  0.700 |ddv_scf|^2 =  2.422E-09

      iter #   4 total cpu time :   331.3 secs   av.it.:   9.5
      thresh= 4.921E-06 alpha_mix =  0.700 |ddv_scf|^2 =  1.305E-10

      iter #   5 total cpu time :   351.3 secs   av.it.:   9.4
      thresh= 1.142E-06 alpha_mix =  0.700 |ddv_scf|^2 =  3.270E-12

      iter #   6 total cpu time :   371.2 secs   av.it.:   9.6
      thresh= 1.808E-07 alpha_mix =  0.700 |ddv_scf|^2 =  3.221E-13

      iter #   7 total cpu time :   390.6 secs   av.it.:   9.6
      thresh= 5.675E-08 alpha_mix =  0.700 |ddv_scf|^2 =  1.558E-14

      iter #   8 total cpu time :   409.1 secs   av.it.:   9.6
      thresh= 1.248E-08 alpha_mix =  0.700 |ddv_scf|^2 =  4.835E-16

      iter #   9 total cpu time :   427.8 secs   av.it.:   9.7
      thresh= 2.199E-09 alpha_mix =  0.700 |ddv_scf|^2 =  5.991E-17

     End of self-consistent calculation

     Convergence has been achieved 


     Representation #   3 mode #   3

     Self-consistent Calculation

      iter #   1 total cpu time :   446.0 secs   av.it.:   4.2
      thresh= 1.000E-02 alpha_mix =  0.700 |ddv_scf|^2 =  7.087E-07

      iter #   2 total cpu time :   463.1 secs   av.it.:   9.5
      thresh= 8.418E-05 alpha_mix =  0.700 |ddv_scf|^2 =  5.343E-07

      iter #   3 total cpu time :   480.6 secs   av.it.:   8.9
      thresh= 7.309E-05 alpha_mix =  0.700 |ddv_scf|^2 =  8.718E-10

      iter #   4 total cpu time :   504.6 secs   av.it.:   9.6
      thresh= 2.953E-06 alpha_mix =  0.700 |ddv_scf|^2 =  4.693E-11

      iter #   5 total cpu time :   525.3 secs   av.it.:   9.6
      thresh= 6.850E-07 alpha_mix =  0.700 |ddv_scf|^2 =  3.549E-12

      iter #   6 total cpu time :   547.7 secs   av.it.:   9.6
      thresh= 1.884E-07 alpha_mix =  0.700 |ddv_scf|^2 =  1.899E-13

      iter #   7 total cpu time :   570.3 secs   av.it.:   9.6
      thresh= 4.357E-08 alpha_mix =  0.700 |ddv_scf|^2 =  1.063E-14

      iter #   8 total cpu time :   595.8 secs   av.it.:   9.5
      thresh= 1.031E-08 alpha_mix =  0.700 |ddv_scf|^2 =  7.602E-16

      iter #   9 total cpu time :   619.4 secs   av.it.:   9.6
      thresh= 2.757E-09 alpha_mix =  0.700 |ddv_scf|^2 =  1.077E-16

      iter #  10 total cpu time :   642.9 secs   av.it.:   9.5
      thresh= 1.038E-09 alpha_mix =  0.700 |ddv_scf|^2 =  1.725E-17

     End of self-consistent calculation

     Convergence has been achieved 


     Representation #   4 mode #   4

     Self-consistent Calculation

      iter #   1 total cpu time :   661.1 secs   av.it.:   4.2
      thresh= 1.000E-02 alpha_mix =  0.700 |ddv_scf|^2 =  9.799E-07

      iter #   2 total cpu time :   675.2 secs   av.it.:   9.5
      thresh= 9.899E-05 alpha_mix =  0.700 |ddv_scf|^2 =  7.107E-07

      iter #   3 total cpu time :   692.1 secs   av.it.:   8.9
      thresh= 8.430E-05 alpha_mix =  0.700 |ddv_scf|^2 =  2.268E-09

      iter #   4 total cpu time :   708.8 secs   av.it.:   9.4
      thresh= 4.762E-06 alpha_mix =  0.700 |ddv_scf|^2 =  1.233E-10

      iter #   5 total cpu time :   725.4 secs   av.it.:   9.6
      thresh= 1.111E-06 alpha_mix =  0.700 |ddv_scf|^2 =  6.175E-12

      iter #   6 total cpu time :   744.3 secs   av.it.:   9.4
      thresh= 2.485E-07 alpha_mix =  0.700 |ddv_scf|^2 =  4.046E-13

      iter #   7 total cpu time :   763.6 secs   av.it.:   9.5
      thresh= 6.361E-08 alpha_mix =  0.700 |ddv_scf|^2 =  6.106E-15

      iter #   8 total cpu time :   780.7 secs   av.it.:   9.8
      thresh= 7.814E-09 alpha_mix =  0.700 |ddv_scf|^2 =  3.092E-16

      iter #   9 total cpu time :   798.9 secs   av.it.:   9.7
      thresh= 1.758E-09 alpha_mix =  0.700 |ddv_scf|^2 =  1.885E-17

     End of self-consistent calculation

     Convergence has been achieved 


     Representation #   5 mode #   5

     Self-consistent Calculation

      iter #   1 total cpu time :   816.4 secs   av.it.:   4.1
      thresh= 1.000E-02 alpha_mix =  0.700 |ddv_scf|^2 =  4.841E-07

      iter #   2 total cpu time :   831.5 secs   av.it.:   9.6
      thresh= 6.958E-05 alpha_mix =  0.700 |ddv_scf|^2 =  3.286E-07

      iter #   3 total cpu time :   848.7 secs   av.it.:   9.0
      thresh= 5.732E-05 alpha_mix =  0.700 |ddv_scf|^2 =  1.643E-09

      iter #   4 total cpu time :   866.8 secs   av.it.:   9.6
      thresh= 4.053E-06 alpha_mix =  0.700 |ddv_scf|^2 =  1.158E-10

      iter #   5 total cpu time :   890.1 secs   av.it.:   9.6
      thresh= 1.076E-06 alpha_mix =  0.700 |ddv_scf|^2 =  2.856E-12

      iter #   6 total cpu time :   918.6 secs   av.it.:   9.6
      thresh= 1.690E-07 alpha_mix =  0.700 |ddv_scf|^2 =  2.410E-13

      iter #   7 total cpu time :   940.8 secs   av.it.:   9.5
      thresh= 4.910E-08 alpha_mix =  0.700 |ddv_scf|^2 =  1.539E-14

      iter #   8 total cpu time :   960.3 secs   av.it.:   9.4
      thresh= 1.241E-08 alpha_mix =  0.700 |ddv_scf|^2 =  4.685E-16

      iter #   9 total cpu time :   980.9 secs   av.it.:   9.8
      thresh= 2.165E-09 alpha_mix =  0.700 |ddv_scf|^2 =  1.434E-16

      iter #  10 total cpu time :   999.7 secs   av.it.:   9.3
      thresh= 1.197E-09 alpha_mix =  0.700 |ddv_scf|^2 =  7.497E-18

     End of self-consistent calculation

     Convergence has been achieved 


     Representation #   6 mode #   6

     Self-consistent Calculation

      iter #   1 total cpu time :  1017.7 secs   av.it.:   6.5
      thresh= 1.000E-02 alpha_mix =  0.700 |ddv_scf|^2 =  3.853E-05

      iter #   2 total cpu time :  1032.3 secs   av.it.:   9.6
      thresh= 6.207E-04 alpha_mix =  0.700 |ddv_scf|^2 =  2.678E-05

      iter #   3 total cpu time :  1047.9 secs   av.it.:   8.9
      thresh= 5.175E-04 alpha_mix =  0.700 |ddv_scf|^2 =  1.570E-07

      iter #   4 total cpu time :  1064.3 secs   av.it.:   9.4
      thresh= 3.962E-05 alpha_mix =  0.700 |ddv_scf|^2 =  2.334E-09

      iter #   5 total cpu time :  1081.8 secs   av.it.:   9.5
      thresh= 4.831E-06 alpha_mix =  0.700 |ddv_scf|^2 =  1.904E-10

      iter #   6 total cpu time :  1099.1 secs   av.it.:   9.4
      thresh= 1.380E-06 alpha_mix =  0.700 |ddv_scf|^2 =  1.089E-11

      iter #   7 total cpu time :  1117.0 secs   av.it.:   9.3
      thresh= 3.300E-07 alpha_mix =  0.700 |ddv_scf|^2 =  4.227E-13

      iter #   8 total cpu time :  1135.8 secs   av.it.:   9.7
      thresh= 6.502E-08 alpha_mix =  0.700 |ddv_scf|^2 =  7.082E-14

      iter #   9 total cpu time :  1155.7 secs   av.it.:   9.2
      thresh= 2.661E-08 alpha_mix =  0.700 |ddv_scf|^2 =  3.196E-15

      iter #  10 total cpu time :  1173.5 secs   av.it.:   9.1
      thresh= 5.654E-09 alpha_mix =  0.700 |ddv_scf|^2 =  1.314E-16

      iter #  11 total cpu time :  1191.5 secs   av.it.:   9.5
      thresh= 1.146E-09 alpha_mix =  0.700 |ddv_scf|^2 =  1.592E-17

     End of self-consistent calculation

     Convergence has been achieved 


     Representation #   7 mode #   7

     Self-consistent Calculation

      iter #   1 total cpu time :  1210.8 secs   av.it.:   4.0
      thresh= 1.000E-02 alpha_mix =  0.700 |ddv_scf|^2 =  1.833E-07

      iter #   2 total cpu time :  1228.0 secs   av.it.:   9.6
      thresh= 4.281E-05 alpha_mix =  0.700 |ddv_scf|^2 =  3.970E-08

      iter #   3 total cpu time :  1243.9 secs   av.it.:   9.6
      thresh= 1.993E-05 alpha_mix =  0.700 |ddv_scf|^2 =  1.694E-09

      iter #   4 total cpu time :  1264.5 secs   av.it.:   9.3
      thresh= 4.116E-06 alpha_mix =  0.700 |ddv_scf|^2 =  2.290E-10

      iter #   5 total cpu time :  1282.7 secs   av.it.:   9.4
      thresh= 1.513E-06 alpha_mix =  0.700 |ddv_scf|^2 =  3.077E-12

      iter #   6 total cpu time :  1304.3 secs   av.it.:   9.5
      thresh= 1.754E-07 alpha_mix =  0.700 |ddv_scf|^2 =  3.999E-13

      iter #   7 total cpu time :  1323.6 secs   av.it.:   9.5
      thresh= 6.324E-08 alpha_mix =  0.700 |ddv_scf|^2 =  1.229E-14

      iter #   8 total cpu time :  1343.6 secs   av.it.:   9.5
      thresh= 1.109E-08 alpha_mix =  0.700 |ddv_scf|^2 =  2.758E-16

      iter #   9 total cpu time :  1364.5 secs   av.it.:   9.8
      thresh= 1.661E-09 alpha_mix =  0.700 |ddv_scf|^2 =  3.498E-17

     End of self-consistent calculation

     Convergence has been achieved 


     Representation #   8 mode #   8

     Self-consistent Calculation

      iter #   1 total cpu time :  1383.0 secs   av.it.:   3.4
      thresh= 1.000E-02 alpha_mix =  0.700 |ddv_scf|^2 =  1.102E-08

      iter #   2 total cpu time :  1400.0 secs   av.it.:   9.1
      thresh= 1.050E-05 alpha_mix =  0.700 |ddv_scf|^2 =  6.046E-10

      iter #   3 total cpu time :  1416.8 secs   av.it.:   8.9
      thresh= 2.459E-06 alpha_mix =  0.700 |ddv_scf|^2 =  7.188E-12

      iter #   4 total cpu time :  1433.4 secs   av.it.:   8.6
      thresh= 2.681E-07 alpha_mix =  0.700 |ddv_scf|^2 =  3.322E-14

      iter #   5 total cpu time :  1452.6 secs   av.it.:   9.2
      thresh= 1.823E-08 alpha_mix =  0.700 |ddv_scf|^2 =  2.368E-16

      iter #   6 total cpu time :  1473.7 secs   av.it.:   8.7
      thresh= 1.539E-09 alpha_mix =  0.700 |ddv_scf|^2 =  2.873E-18

     End of self-consistent calculation

     Convergence has been achieved 


     Representation #   9 mode #   9

     Self-consistent Calculation

      iter #   1 total cpu time :  1489.0 secs   av.it.:   3.4
      thresh= 1.000E-02 alpha_mix =  0.700 |ddv_scf|^2 =  1.312E-08

      iter #   2 total cpu time :  1505.4 secs   av.it.:   9.1
      thresh= 1.145E-05 alpha_mix =  0.700 |ddv_scf|^2 =  6.651E-10

      iter #   3 total cpu time :  1523.9 secs   av.it.:   8.9
      thresh= 2.579E-06 alpha_mix =  0.700 |ddv_scf|^2 =  9.013E-12

      iter #   4 total cpu time :  1542.5 secs   av.it.:   8.6
      thresh= 3.002E-07 alpha_mix =  0.700 |ddv_scf|^2 =  3.769E-14

      iter #   5 total cpu time :  1564.3 secs   av.it.:   9.2
      thresh= 1.941E-08 alpha_mix =  0.700 |ddv_scf|^2 =  2.913E-16

      iter #   6 total cpu time :  1586.0 secs   av.it.:   8.9
      thresh= 1.707E-09 alpha_mix =  0.700 |ddv_scf|^2 =  4.004E-18

     End of self-consistent calculation

     Convergence has been achieved 


     Representation #  10 mode #  10

     Self-consistent Calculation

      iter #   1 total cpu time :  1604.1 secs   av.it.:   3.4
      thresh= 1.000E-02 alpha_mix =  0.700 |ddv_scf|^2 =  1.478E-08

      iter #   2 total cpu time :  1623.7 secs   av.it.:   9.0
      thresh= 1.216E-05 alpha_mix =  0.700 |ddv_scf|^2 =  6.833E-10

      iter #   3 total cpu time :  1640.7 secs   av.it.:   8.9
      thresh= 2.614E-06 alpha_mix =  0.700 |ddv_scf|^2 =  9.969E-12

      iter #   4 total cpu time :  1658.2 secs   av.it.:   8.5
      thresh= 3.157E-07 alpha_mix =  0.700 |ddv_scf|^2 =  4.193E-14

      iter #   5 total cpu time :  1675.9 secs   av.it.:   9.2
      thresh= 2.048E-08 alpha_mix =  0.700 |ddv_scf|^2 =  3.023E-16

      iter #   6 total cpu time :  1691.1 secs   av.it.:   8.9
      thresh= 1.739E-09 alpha_mix =  0.700 |ddv_scf|^2 =  4.213E-18

     End of self-consistent calculation

     Convergence has been achieved 


     Representation #  11 mode #  11

     Self-consistent Calculation

      iter #   1 total cpu time :  1706.4 secs   av.it.:   3.4
      thresh= 1.000E-02 alpha_mix =  0.700 |ddv_scf|^2 =  1.312E-08

      iter #   2 total cpu time :  1721.8 secs   av.it.:   9.1
      thresh= 1.145E-05 alpha_mix =  0.700 |ddv_scf|^2 =  6.651E-10

      iter #   3 total cpu time :  1738.1 secs   av.it.:   8.9
      thresh= 2.579E-06 alpha_mix =  0.700 |ddv_scf|^2 =  9.013E-12

      iter #   4 total cpu time :  1755.9 secs   av.it.:   8.6
      thresh= 3.002E-07 alpha_mix =  0.700 |ddv_scf|^2 =  3.769E-14

      iter #   5 total cpu time :  1772.5 secs   av.it.:   9.2
      thresh= 1.941E-08 alpha_mix =  0.700 |ddv_scf|^2 =  2.913E-16

      iter #   6 total cpu time :  1787.6 secs   av.it.:   8.9
      thresh= 1.707E-09 alpha_mix =  0.700 |ddv_scf|^2 =  4.004E-18

     End of self-consistent calculation

     Convergence has been achieved 


     Representation #  12 mode #  12

     Self-consistent Calculation

      iter #   1 total cpu time :  1806.5 secs   av.it.:   6.4
      thresh= 1.000E-02 alpha_mix =  0.700 |ddv_scf|^2 =  3.177E-05

      iter #   2 total cpu time :  1825.7 secs   av.it.:   9.4
      thresh= 5.637E-04 alpha_mix =  0.700 |ddv_scf|^2 =  1.341E-05

      iter #   3 total cpu time :  1841.8 secs   av.it.:   8.9
      thresh= 3.662E-04 alpha_mix =  0.700 |ddv_scf|^2 =  3.986E-09

      iter #   4 total cpu time :  1857.8 secs   av.it.:   9.5
      thresh= 6.313E-06 alpha_mix =  0.700 |ddv_scf|^2 =  3.688E-10

      iter #   5 total cpu time :  1874.3 secs   av.it.:   8.9
      thresh= 1.920E-06 alpha_mix =  0.700 |ddv_scf|^2 =  3.857E-12

      iter #   6 total cpu time :  1892.3 secs   av.it.:   9.2
      thresh= 1.964E-07 alpha_mix =  0.700 |ddv_scf|^2 =  1.715E-14

      iter #   7 total cpu time :  1911.3 secs   av.it.:   8.9
      thresh= 1.309E-08 alpha_mix =  0.700 |ddv_scf|^2 =  1.377E-15

      iter #   8 total cpu time :  1929.5 secs   av.it.:   9.3
      thresh= 3.711E-09 alpha_mix =  0.700 |ddv_scf|^2 =  1.857E-16

      iter #   9 total cpu time :  1949.1 secs   av.it.:   9.1
      thresh= 1.363E-09 alpha_mix =  0.700 |ddv_scf|^2 =  1.547E-18

     End of self-consistent calculation

     Convergence has been achieved 


     Representation #  13 mode #  13

     Self-consistent Calculation

      iter #   1 total cpu time :  1964.9 secs   av.it.:   4.2
      thresh= 1.000E-02 alpha_mix =  0.700 |ddv_scf|^2 =  5.813E-07

      iter #   2 total cpu time :  1980.8 secs   av.it.:   9.3
      thresh= 7.625E-05 alpha_mix =  0.700 |ddv_scf|^2 =  2.093E-07

      iter #   3 total cpu time :  1998.1 secs   av.it.:   8.9
      thresh= 4.575E-05 alpha_mix =  0.700 |ddv_scf|^2 =  5.788E-10

      iter #   4 total cpu time :  2013.5 secs   av.it.:   9.4
      thresh= 2.406E-06 alpha_mix =  0.700 |ddv_scf|^2 =  1.017E-11

      iter #   5 total cpu time :  2030.0 secs   av.it.:   9.3
      thresh= 3.189E-07 alpha_mix =  0.700 |ddv_scf|^2 =  2.700E-13

      iter #   6 total cpu time :  2048.0 secs   av.it.:   9.3
      thresh= 5.196E-08 alpha_mix =  0.700 |ddv_scf|^2 =  1.533E-15

      iter #   7 total cpu time :  2066.8 secs   av.it.:   9.4
      thresh= 3.915E-09 alpha_mix =  0.700 |ddv_scf|^2 =  1.011E-16

      iter #   8 total cpu time :  2084.1 secs   av.it.:   9.3
      thresh= 1.005E-09 alpha_mix =  0.700 |ddv_scf|^2 =  1.166E-18

     End of self-consistent calculation

     Convergence has been achieved 


     Representation #  14 mode #  14

     Self-consistent Calculation

      iter #   1 total cpu time :  2101.2 secs   av.it.:   3.6
      thresh= 1.000E-02 alpha_mix =  0.700 |ddv_scf|^2 =  4.127E-08

      iter #   2 total cpu time :  2117.0 secs   av.it.:   9.3
      thresh= 2.031E-05 alpha_mix =  0.700 |ddv_scf|^2 =  6.969E-09

      iter #   3 total cpu time :  2135.8 secs   av.it.:   9.1
      thresh= 8.348E-06 alpha_mix =  0.700 |ddv_scf|^2 =  6.835E-10

      iter #   4 total cpu time :  2154.0 secs   av.it.:   9.0
      thresh= 2.614E-06 alpha_mix =  0.700 |ddv_scf|^2 =  5.459E-12

      iter #   5 total cpu time :  2169.9 secs   av.it.:   9.0
      thresh= 2.336E-07 alpha_mix =  0.700 |ddv_scf|^2 =  7.717E-14

      iter #   6 total cpu time :  2188.1 secs   av.it.:   9.4
      thresh= 2.778E-08 alpha_mix =  0.700 |ddv_scf|^2 =  2.360E-15

      iter #   7 total cpu time :  2209.7 secs   av.it.:   9.1
      thresh= 4.858E-09 alpha_mix =  0.700 |ddv_scf|^2 =  9.247E-17

     End of self-consistent calculation

     Convergence has been achieved 


     Representation #  15 mode #  15

     Self-consistent Calculation

      iter #   1 total cpu time :  2229.2 secs   av.it.:   4.2
      thresh= 1.000E-02 alpha_mix =  0.700 |ddv_scf|^2 =  5.813E-07

      iter #   2 total cpu time :  2245.0 secs   av.it.:   9.3
      thresh= 7.625E-05 alpha_mix =  0.700 |ddv_scf|^2 =  2.093E-07

      iter #   3 total cpu time :  2261.4 secs   av.it.:   8.9
      thresh= 4.575E-05 alpha_mix =  0.700 |ddv_scf|^2 =  5.788E-10

      iter #   4 total cpu time :  2279.6 secs   av.it.:   9.4
      thresh= 2.406E-06 alpha_mix =  0.700 |ddv_scf|^2 =  1.017E-11

      iter #   5 total cpu time :  2298.9 secs   av.it.:   9.3
      thresh= 3.189E-07 alpha_mix =  0.700 |ddv_scf|^2 =  2.699E-13

      iter #   6 total cpu time :  2317.7 secs   av.it.:   9.3
      thresh= 5.195E-08 alpha_mix =  0.700 |ddv_scf|^2 =  1.561E-15

      iter #   7 total cpu time :  2335.0 secs   av.it.:   9.4
      thresh= 3.952E-09 alpha_mix =  0.700 |ddv_scf|^2 =  1.030E-16

      iter #   8 total cpu time :  2354.5 secs   av.it.:   9.4
      thresh= 1.015E-09 alpha_mix =  0.700 |ddv_scf|^2 =  8.263E-18

     End of self-consistent calculation

     Convergence has been achieved 


     Representation #  16 mode #  16

     Self-consistent Calculation

      iter #   1 total cpu time :  2370.2 secs   av.it.:   3.8
      thresh= 1.000E-02 alpha_mix =  0.700 |ddv_scf|^2 =  3.084E-07

      iter #   2 total cpu time :  2385.6 secs   av.it.:   9.2
      thresh= 5.554E-05 alpha_mix =  0.700 |ddv_scf|^2 =  2.004E-07

      iter #   3 total cpu time :  2402.5 secs   av.it.:   8.7
      thresh= 4.476E-05 alpha_mix =  0.700 |ddv_scf|^2 =  2.049E-09

      iter #   4 total cpu time :  2420.0 secs   av.it.:   9.1
      thresh= 4.527E-06 alpha_mix =  0.700 |ddv_scf|^2 =  5.912E-11

      iter #   5 total cpu time :  2438.0 secs   av.it.:   9.1
      thresh= 7.689E-07 alpha_mix =  0.700 |ddv_scf|^2 =  3.804E-13

      iter #   6 total cpu time :  2457.0 secs   av.it.:   9.5
      thresh= 6.168E-08 alpha_mix =  0.700 |ddv_scf|^2 =  9.779E-15

      iter #   7 total cpu time :  2476.0 secs   av.it.:   9.5
      thresh= 9.889E-09 alpha_mix =  0.700 |ddv_scf|^2 =  6.628E-16

      iter #   8 total cpu time :  2493.6 secs   av.it.:   9.5
      thresh= 2.574E-09 alpha_mix =  0.700 |ddv_scf|^2 =  4.305E-17

     End of self-consistent calculation

     Convergence has been achieved 


     Representation #  17 mode #  17

     Self-consistent Calculation

      iter #   1 total cpu time :  2510.5 secs   av.it.:   3.9
      thresh= 1.000E-02 alpha_mix =  0.700 |ddv_scf|^2 =  2.996E-07

      iter #   2 total cpu time :  2529.3 secs   av.it.:   9.4
      thresh= 5.474E-05 alpha_mix =  0.700 |ddv_scf|^2 =  1.836E-07

      iter #   3 total cpu time :  2549.6 secs   av.it.:   8.8
      thresh= 4.285E-05 alpha_mix =  0.700 |ddv_scf|^2 =  2.670E-09

      iter #   4 total cpu time :  2566.0 secs   av.it.:   8.9
      thresh= 5.167E-06 alpha_mix =  0.700 |ddv_scf|^2 =  6.370E-11

      iter #   5 total cpu time :  2583.2 secs   av.it.:   9.2
      thresh= 7.981E-07 alpha_mix =  0.700 |ddv_scf|^2 =  1.187E-12

      iter #   6 total cpu time :  2601.0 secs   av.it.:   9.4
      thresh= 1.089E-07 alpha_mix =  0.700 |ddv_scf|^2 =  1.955E-14

      iter #   7 total cpu time :  2619.4 secs   av.it.:   9.3
      thresh= 1.398E-08 alpha_mix =  0.700 |ddv_scf|^2 =  1.148E-15

      iter #   8 total cpu time :  2636.3 secs   av.it.:   9.3
      thresh= 3.389E-09 alpha_mix =  0.700 |ddv_scf|^2 =  4.822E-17

     End of self-consistent calculation

     Convergence has been achieved 


     Representation #  18 mode #  18

     Self-consistent Calculation

      iter #   1 total cpu time :  2653.3 secs   av.it.:   4.1
      thresh= 1.000E-02 alpha_mix =  0.700 |ddv_scf|^2 =  6.873E-07

      iter #   2 total cpu time :  2667.9 secs   av.it.:   9.2
      thresh= 8.290E-05 alpha_mix =  0.700 |ddv_scf|^2 =  4.784E-07

      iter #   3 total cpu time :  2686.5 secs   av.it.:   8.7
      thresh= 6.917E-05 alpha_mix =  0.700 |ddv_scf|^2 =  3.804E-09

      iter #   4 total cpu time :  2701.4 secs   av.it.:   8.7
      thresh= 6.167E-06 alpha_mix =  0.700 |ddv_scf|^2 =  9.202E-11

      iter #   5 total cpu time :  2719.8 secs   av.it.:   9.1
      thresh= 9.593E-07 alpha_mix =  0.700 |ddv_scf|^2 =  2.030E-12

      iter #   6 total cpu time :  2738.3 secs   av.it.:   9.1
      thresh= 1.425E-07 alpha_mix =  0.700 |ddv_scf|^2 =  3.786E-14

      iter #   7 total cpu time :  2756.9 secs   av.it.:   9.1
      thresh= 1.946E-08 alpha_mix =  0.700 |ddv_scf|^2 =  2.340E-15

      iter #   8 total cpu time :  2779.5 secs   av.it.:   9.2
      thresh= 4.837E-09 alpha_mix =  0.700 |ddv_scf|^2 =  4.315E-17

     End of self-consistent calculation

     Convergence has been achieved 


     Representation #  19 mode #  19

     Self-consistent Calculation

      iter #   1 total cpu time :  2797.4 secs   av.it.:   6.5
      thresh= 1.000E-02 alpha_mix =  0.700 |ddv_scf|^2 =  5.465E-05

      iter #   2 total cpu time :  2812.6 secs   av.it.:   9.4
      thresh= 7.393E-04 alpha_mix =  0.700 |ddv_scf|^2 =  4.623E-05

      iter #   3 total cpu time :  2829.1 secs   av.it.:   8.6
      thresh= 6.799E-04 alpha_mix =  0.700 |ddv_scf|^2 =  9.634E-08

      iter #   4 total cpu time :  2844.7 secs   av.it.:   9.3
      thresh= 3.104E-05 alpha_mix =  0.700 |ddv_scf|^2 =  1.436E-09

      iter #   5 total cpu time :  2863.6 secs   av.it.:   9.2
      thresh= 3.789E-06 alpha_mix =  0.700 |ddv_scf|^2 =  5.736E-11

      iter #   6 total cpu time :  2883.7 secs   av.it.:   9.1
      thresh= 7.574E-07 alpha_mix =  0.700 |ddv_scf|^2 =  1.311E-12

      iter #   7 total cpu time :  2903.6 secs   av.it.:   9.1
      thresh= 1.145E-07 alpha_mix =  0.700 |ddv_scf|^2 =  3.788E-14

      iter #   8 total cpu time :  2927.5 secs   av.it.:   9.1
      thresh= 1.946E-08 alpha_mix =  0.700 |ddv_scf|^2 =  1.684E-15

      iter #   9 total cpu time :  2946.1 secs   av.it.:   9.2
      thresh= 4.104E-09 alpha_mix =  0.700 |ddv_scf|^2 =  4.222E-16

      iter #  10 total cpu time :  2967.3 secs   av.it.:   9.1
      thresh= 2.055E-09 alpha_mix =  0.700 |ddv_scf|^2 =  5.204E-18

     End of self-consistent calculation

     Convergence has been achieved 


     Representation #  20 mode #  20

     Self-consistent Calculation

      iter #   1 total cpu time :  2983.8 secs   av.it.:   3.9
      thresh= 1.000E-02 alpha_mix =  0.700 |ddv_scf|^2 =  5.092E-07

      iter #   2 total cpu time :  3001.9 secs   av.it.:   9.3
      thresh= 7.136E-05 alpha_mix =  0.700 |ddv_scf|^2 =  4.052E-07

      iter #   3 total cpu time :  3020.0 secs   av.it.:   8.7
      thresh= 6.365E-05 alpha_mix =  0.700 |ddv_scf|^2 =  1.136E-09

      iter #   4 total cpu time :  3039.3 secs   av.it.:   9.0
      thresh= 3.371E-06 alpha_mix =  0.700 |ddv_scf|^2 =  6.235E-11

      iter #   5 total cpu time :  3055.9 secs   av.it.:   9.2
      thresh= 7.896E-07 alpha_mix =  0.700 |ddv_scf|^2 =  1.135E-12

      iter #   6 total cpu time :  3074.4 secs   av.it.:   9.4
      thresh= 1.065E-07 alpha_mix =  0.700 |ddv_scf|^2 =  1.612E-14

      iter #   7 total cpu time :  3095.1 secs   av.it.:   9.4
      thresh= 1.270E-08 alpha_mix =  0.700 |ddv_scf|^2 =  1.102E-15

      iter #   8 total cpu time :  3116.0 secs   av.it.:   9.3
      thresh= 3.320E-09 alpha_mix =  0.700 |ddv_scf|^2 =  1.734E-17

     End of self-consistent calculation

     Convergence has been achieved 


     Representation #  21 mode #  21

     Self-consistent Calculation

      iter #   1 total cpu time :  3132.6 secs   av.it.:   4.0
      thresh= 1.000E-02 alpha_mix =  0.700 |ddv_scf|^2 =  5.177E-07

      iter #   2 total cpu time :  3149.2 secs   av.it.:   9.3
      thresh= 7.195E-05 alpha_mix =  0.700 |ddv_scf|^2 =  4.215E-07

      iter #   3 total cpu time :  3166.8 secs   av.it.:   8.6
      thresh= 6.492E-05 alpha_mix =  0.700 |ddv_scf|^2 =  9.268E-10

      iter #   4 total cpu time :  3185.1 secs   av.it.:   9.3
      thresh= 3.044E-06 alpha_mix =  0.700 |ddv_scf|^2 =  5.504E-11

      iter #   5 total cpu time :  3202.0 secs   av.it.:   9.1
      thresh= 7.419E-07 alpha_mix =  0.700 |ddv_scf|^2 =  1.999E-13

      iter #   6 total cpu time :  3220.3 secs   av.it.:   9.6
      thresh= 4.471E-08 alpha_mix =  0.700 |ddv_scf|^2 =  8.818E-15

      iter #   7 total cpu time :  3238.1 secs   av.it.:   9.5
      thresh= 9.391E-09 alpha_mix =  0.700 |ddv_scf|^2 =  3.493E-16

      iter #   8 total cpu time :  3255.2 secs   av.it.:   9.5
      thresh= 1.869E-09 alpha_mix =  0.700 |ddv_scf|^2 =  2.778E-17

     End of self-consistent calculation

     Convergence has been achieved 
 
     Number of q in the star =   12
     List of q in the star:
          1  -0.866025400  -0.108253200  -0.108253200
          2  -0.108253200  -0.866025400   0.108253200
          3   0.108253200   0.866025400   0.108253200
          4  -0.108253200   0.866025400  -0.108253200
          5   0.108253200  -0.866025400  -0.108253200
          6  -0.108253200   0.108253200  -0.866025400
          7   0.108253200   0.108253200   0.866025400
          8  -0.108253200  -0.108253200   0.866025400
          9   0.108253200  -0.108253200  -0.866025400
         10   0.866025400   0.108253200  -0.108253200
         11   0.866025400   0.108253200   0.108253200
         12  -0.866025400  -0.108253200   0.108253200

     Diagonalizing the dynamical matrix

     q = (   -0.866025400  -0.108253200  -0.108253200 ) 

 **************************************************************************
     freq (    1) =       8.516260 [THz] =     284.071870 [cm-1]
     freq (    2) =       9.645756 [THz] =     321.747786 [cm-1]
     freq (    3) =       9.753689 [THz] =     325.348057 [cm-1]
     freq (    4) =      25.871488 [THz] =     862.979944 [cm-1]
     freq (    5) =      27.632516 [THz] =     921.721531 [cm-1]
     freq (    6) =      28.692560 [THz] =     957.080780 [cm-1]
     freq (    7) =      28.834174 [THz] =     961.804502 [cm-1]
     freq (    8) =      29.623404 [THz] =     988.130399 [cm-1]
     freq (    9) =      30.336682 [THz] =    1011.922774 [cm-1]
     freq (   10) =      40.870923 [THz] =    1363.307246 [cm-1]
     freq (   11) =      40.905527 [THz] =    1364.461523 [cm-1]
     freq (   12) =      41.525437 [THz] =    1385.139468 [cm-1]
     freq (   13) =      43.226760 [THz] =    1441.889523 [cm-1]
     freq (   14) =      43.242495 [THz] =    1442.414363 [cm-1]
     freq (   15) =      44.547622 [THz] =    1485.948737 [cm-1]
     freq (   16) =      44.604642 [THz] =    1487.850693 [cm-1]
     freq (   17) =      45.946953 [THz] =    1532.625390 [cm-1]
     freq (   18) =      46.330276 [THz] =    1545.411652 [cm-1]
     freq (   19) =      56.614437 [THz] =    1888.454351 [cm-1]
     freq (   20) =      57.110255 [THz] =    1904.993049 [cm-1]
     freq (   21) =      57.987658 [THz] =    1934.260066 [cm-1]
 **************************************************************************

     Mode symmetry, C_2v (mm2)  point group:

     freq (   1-   1) =        284.1  [cm-1]   --> B_1  D_3  S_3      
     freq (   2-   2) =        321.7  [cm-1]   --> A_1  D_1  S_1      
     freq (   3-   3) =        325.3  [cm-1]   --> B_2  D_4  S_4      
     freq (   4-   4) =        863.0  [cm-1]   --> B_2  D_4  S_4      
     freq (   5-   5) =        921.7  [cm-1]   --> A_2  D_2  S_2      
     freq (   6-   6) =        957.1  [cm-1]   --> A_2  D_2  S_2      
     freq (   7-   7) =        961.8  [cm-1]   --> A_1  D_1  S_1      
     freq (   8-   8) =        988.1  [cm-1]   --> B_1  D_3  S_3      
     freq (   9-   9) =       1011.9  [cm-1]   --> A_1  D_1  S_1      
     freq (  10-  10) =       1363.3  [cm-1]   --> B_2  D_4  S_4      
     freq (  11-  11) =       1364.5  [cm-1]   --> A_2  D_2  S_2      
     freq (  12-  12) =       1385.1  [cm-1]   --> A_1  D_1  S_1      
     freq (  13-  13) =       1441.9  [cm-1]   --> B_1  D_3  S_3      
     freq (  14-  14) =       1442.4  [cm-1]   --> B_2  D_4  S_4      
     freq (  15-  15) =       1485.9  [cm-1]   --> A_2  D_2  S_2      
     freq (  16-  16) =       1487.9  [cm-1]   --> A_1  D_1  S_1      
     freq (  17-  17) =       1532.6  [cm-1]   --> B_2  D_4  S_4      
     freq (  18-  18) =       1545.4  [cm-1]   --> B_1  D_3  S_3      
     freq (  19-  19) =       1888.5  [cm-1]   --> A_1  D_1  S_1      
     freq (  20-  20) =       1905.0  [cm-1]   --> B_2  D_4  S_4      
     freq (  21-  21) =       1934.3  [cm-1]   --> A_1  D_1  S_1      
     electron-phonon interaction  ...

     Gaussian Broadening:   0.005 Ry, ngauss=   0
     DOS =  1.900675 states/spin/Ry/Unit Cell at Ef= 17.155196 eV
     lambda(    1)=  0.0130   gamma=    1.70 GHz
     lambda(    2)=  0.0097   gamma=    1.64 GHz
     lambda(    3)=  0.0057   gamma=    0.98 GHz
     lambda(    4)=  0.0159   gamma=   19.34 GHz
     lambda(    5)=  0.0080   gamma=   11.12 GHz
     lambda(    6)=  0.0119   gamma=   17.85 GHz
     lambda(    7)=  0.0203   gamma=   30.58 GHz
     lambda(    8)=  0.0303   gamma=   48.34 GHz
     lambda(    9)=  0.0272   gamma=   45.43 GHz
     lambda(   10)=  0.0008   gamma=    2.39 GHz
     lambda(   11)=  0.0001   gamma=    0.36 GHz
     lambda(   12)=  0.0002   gamma=    0.55 GHz
     lambda(   13)=  0.0003   gamma=    0.90 GHz
     lambda(   14)=  0.0154   gamma=   52.39 GHz
     lambda(   15)=  0.0000   gamma=    0.17 GHz
     lambda(   16)=  0.0273   gamma=   98.71 GHz
     lambda(   17)=  0.0182   gamma=   69.82 GHz
     lambda(   18)=  0.0012   gamma=    4.68 GHz
     lambda(   19)=  0.0090   gamma=   52.39 GHz
     lambda(   20)=  0.0075   gamma=   44.67 GHz
     lambda(   21)=  0.0477   gamma=  290.96 GHz
     Gaussian Broadening:   0.010 Ry, ngauss=   0
     DOS =  2.130656 states/spin/Ry/Unit Cell at Ef= 17.149400 eV
     lambda(    1)=  0.0720   gamma=   10.62 GHz
     lambda(    2)=  0.0518   gamma=    9.80 GHz
     lambda(    3)=  0.0147   gamma=    2.85 GHz
     lambda(    4)=  0.0467   gamma=   63.64 GHz
     lambda(    5)=  0.0738   gamma=  114.71 GHz
     lambda(    6)=  0.1440   gamma=  241.16 GHz
     lambda(    7)=  0.0717   gamma=  121.22 GHz
     lambda(    8)=  0.1834   gamma=  327.46 GHz
     lambda(    9)=  0.1043   gamma=  195.39 GHz
     lambda(   10)=  0.0018   gamma=    5.99 GHz
     lambda(   11)=  0.0008   gamma=    2.88 GHz
     lambda(   12)=  0.0010   gamma=    3.35 GHz
     lambda(   13)=  0.0028   gamma=   10.55 GHz
     lambda(   14)=  0.0082   gamma=   31.32 GHz
     lambda(   15)=  0.0012   gamma=    4.71 GHz
     lambda(   16)=  0.0208   gamma=   84.23 GHz
     lambda(   17)=  0.0131   gamma=   56.23 GHz
     lambda(   18)=  0.0059   gamma=   25.94 GHz
     lambda(   19)=  0.0081   gamma=   52.65 GHz
     lambda(   20)=  0.0234   gamma=  155.11 GHz
     lambda(   21)=  0.0236   gamma=  161.27 GHz
     Gaussian Broadening:   0.015 Ry, ngauss=   0
     DOS =  2.235086 states/spin/Ry/Unit Cell at Ef= 17.146382 eV
     lambda(    1)=  0.0997   gamma=   15.43 GHz
     lambda(    2)=  0.0703   gamma=   13.97 GHz
     lambda(    3)=  0.0224   gamma=    4.55 GHz
     lambda(    4)=  0.0712   gamma=  101.66 GHz
     lambda(    5)=  0.1212   gamma=  197.44 GHz
     lambda(    6)=  0.2278   gamma=  400.30 GHz
     lambda(    7)=  0.0976   gamma=  173.19 GHz
     lambda(    8)=  0.2691   gamma=  504.08 GHz
     lambda(    9)=  0.1614   gamma=  317.02 GHz
     lambda(   10)=  0.0026   gamma=    9.26 GHz
     lambda(   11)=  0.0014   gamma=    5.06 GHz
     lambda(   12)=  0.0015   gamma=    5.50 GHz
     lambda(   13)=  0.0041   gamma=   16.39 GHz
     lambda(   14)=  0.0093   gamma=   37.18 GHz
     lambda(   15)=  0.0022   gamma=    9.47 GHz
     lambda(   16)=  0.0262   gamma=  111.38 GHz
     lambda(   17)=  0.0146   gamma=   65.81 GHz
     lambda(   18)=  0.0075   gamma=   34.20 GHz
     lambda(   19)=  0.0102   gamma=   69.66 GHz
     lambda(   20)=  0.0331   gamma=  230.53 GHz
     lambda(   21)=  0.0255   gamma=  182.94 GHz
     Gaussian Broadening:   0.020 Ry, ngauss=   0
     DOS =  2.290454 states/spin/Ry/Unit Cell at Ef= 17.145317 eV
     lambda(    1)=  0.1143   gamma=   18.13 GHz
     lambda(    2)=  0.0800   gamma=   16.29 GHz
     lambda(    3)=  0.0270   gamma=    5.62 GHz
     lambda(    4)=  0.0820   gamma=  120.00 GHz
     lambda(    5)=  0.1575   gamma=  263.09 GHz
     lambda(    6)=  0.2630   gamma=  473.52 GHz
     lambda(    7)=  0.1133   gamma=  206.01 GHz
     lambda(    8)=  0.2979   gamma=  571.83 GHz
     lambda(    9)=  0.1915   gamma=  385.43 GHz
     lambda(   10)=  0.0031   gamma=   11.36 GHz
     lambda(   11)=  0.0018   gamma=    6.60 GHz
     lambda(   12)=  0.0016   gamma=    6.16 GHz
     lambda(   13)=  0.0047   gamma=   19.26 GHz
     lambda(   14)=  0.0101   gamma=   41.23 GHz
     lambda(   15)=  0.0028   gamma=   12.34 GHz
     lambda(   16)=  0.0297   gamma=  129.05 GHz
     lambda(   17)=  0.0153   gamma=   70.48 GHz
     lambda(   18)=  0.0083   gamma=   38.91 GHz
     lambda(   19)=  0.0109   gamma=   76.58 GHz
     lambda(   20)=  0.0358   gamma=  255.70 GHz
     lambda(   21)=  0.0280   gamma=  205.62 GHz
     Gaussian Broadening:   0.025 Ry, ngauss=   0
     DOS =  2.332190 states/spin/Ry/Unit Cell at Ef= 17.144758 eV
     lambda(    1)=  0.1220   gamma=   19.71 GHz
     lambda(    2)=  0.0862   gamma=   17.86 GHz
     lambda(    3)=  0.0302   gamma=    6.39 GHz
     lambda(    4)=  0.0874   gamma=  130.29 GHz
     lambda(    5)=  0.1779   gamma=  302.54 GHz
     lambda(    6)=  0.2755   gamma=  505.07 GHz
     lambda(    7)=  0.1218   gamma=  225.51 GHz
     lambda(    8)=  0.3067   gamma=  599.33 GHz
     lambda(    9)=  0.2072   gamma=  424.74 GHz
     lambda(   10)=  0.0034   gamma=   12.50 GHz
     lambda(   11)=  0.0020   gamma=    7.58 GHz
     lambda(   12)=  0.0017   gamma=    6.38 GHz
     lambda(   13)=  0.0051   gamma=   21.20 GHz
     lambda(   14)=  0.0106   gamma=   44.18 GHz
     lambda(   15)=  0.0031   gamma=   13.91 GHz
     lambda(   16)=  0.0312   gamma=  138.03 GHz
     lambda(   17)=  0.0155   gamma=   73.02 GHz
     lambda(   18)=  0.0089   gamma=   42.46 GHz
     lambda(   19)=  0.0113   gamma=   80.85 GHz
     lambda(   20)=  0.0371   gamma=  269.43 GHz
     lambda(   21)=  0.0296   gamma=  221.50 GHz
     Gaussian Broadening:   0.030 Ry, ngauss=   0
     DOS =  2.360595 states/spin/Ry/Unit Cell at Ef= 17.144134 eV
     lambda(    1)=  0.1256   gamma=   20.53 GHz
     lambda(    2)=  0.0910   gamma=   19.09 GHz
     lambda(    3)=  0.0331   gamma=    7.10 GHz
     lambda(    4)=  0.0911   gamma=  137.53 GHz
     lambda(    5)=  0.1865   gamma=  321.01 GHz
     lambda(    6)=  0.2783   gamma=  516.48 GHz
     lambda(    7)=  0.1266   gamma=  237.19 GHz
     lambda(    8)=  0.3077   gamma=  608.77 GHz
     lambda(    9)=  0.2148   gamma=  445.63 GHz
     lambda(   10)=  0.0035   gamma=   12.99 GHz
     lambda(   11)=  0.0021   gamma=    8.10 GHz
     lambda(   12)=  0.0017   gamma=    6.49 GHz
     lambda(   13)=  0.0055   gamma=   22.98 GHz
     lambda(   14)=  0.0112   gamma=   47.18 GHz
     lambda(   15)=  0.0033   gamma=   14.65 GHz
     lambda(   16)=  0.0315   gamma=  141.31 GHz
     lambda(   17)=  0.0156   gamma=   74.21 GHz
     lambda(   18)=  0.0094   gamma=   45.30 GHz
     lambda(   19)=  0.0119   gamma=   85.64 GHz
     lambda(   20)=  0.0375   gamma=  275.82 GHz
     lambda(   21)=  0.0309   gamma=  234.02 GHz
     Gaussian Broadening:   0.035 Ry, ngauss=   0
     DOS =  2.381114 states/spin/Ry/Unit Cell at Ef= 17.143351 eV
     lambda(    1)=  0.1273   gamma=   21.00 GHz
     lambda(    2)=  0.0954   gamma=   20.18 GHz
     lambda(    3)=  0.0364   gamma=    7.87 GHz
     lambda(    4)=  0.0950   gamma=  144.61 GHz
     lambda(    5)=  0.1894   gamma=  328.76 GHz
     lambda(    6)=  0.2782   gamma=  520.85 GHz
     lambda(    7)=  0.1300   gamma=  245.68 GHz
     lambda(    8)=  0.3065   gamma=  611.65 GHz
     lambda(    9)=  0.2186   gamma=  457.54 GHz
     lambda(   10)=  0.0035   gamma=   13.23 GHz
     lambda(   11)=  0.0022   gamma=    8.42 GHz
     lambda(   12)=  0.0017   gamma=    6.59 GHz
     lambda(   13)=  0.0059   gamma=   24.99 GHz
     lambda(   14)=  0.0119   gamma=   50.62 GHz
     lambda(   15)=  0.0033   gamma=   15.04 GHz
     lambda(   16)=  0.0314   gamma=  142.10 GHz
     lambda(   17)=  0.0156   gamma=   74.78 GHz
     lambda(   18)=  0.0098   gamma=   48.02 GHz
     lambda(   19)=  0.0126   gamma=   91.79 GHz
     lambda(   20)=  0.0374   gamma=  277.44 GHz
     lambda(   21)=  0.0322   gamma=  246.50 GHz
     Gaussian Broadening:   0.040 Ry, ngauss=   0
     DOS =  2.398900 states/spin/Ry/Unit Cell at Ef= 17.142416 eV
     lambda(    1)=  0.1292   gamma=   21.46 GHz
     lambda(    2)=  0.0997   gamma=   21.25 GHz
     lambda(    3)=  0.0398   gamma=    8.68 GHz
     lambda(    4)=  0.0998   gamma=  153.04 GHz
     lambda(    5)=  0.1901   gamma=  332.45 GHz
     lambda(    6)=  0.2778   gamma=  523.92 GHz
     lambda(    7)=  0.1332   gamma=  253.66 GHz
     lambda(    8)=  0.3052   gamma=  613.61 GHz
     lambda(    9)=  0.2212   gamma=  466.27 GHz
     lambda(   10)=  0.0035   gamma=   13.44 GHz
     lambda(   11)=  0.0023   gamma=    8.78 GHz
     lambda(   12)=  0.0017   gamma=    6.77 GHz
     lambda(   13)=  0.0064   gamma=   27.46 GHz
     lambda(   14)=  0.0127   gamma=   54.37 GHz
     lambda(   15)=  0.0034   gamma=   15.42 GHz
     lambda(   16)=  0.0312   gamma=  142.21 GHz
     lambda(   17)=  0.0155   gamma=   75.19 GHz
     lambda(   18)=  0.0104   gamma=   50.98 GHz
     lambda(   19)=  0.0135   gamma=   99.42 GHz
     lambda(   20)=  0.0370   gamma=  276.71 GHz
     lambda(   21)=  0.0338   gamma=  260.15 GHz
     Gaussian Broadening:   0.045 Ry, ngauss=   0
     DOS =  2.416850 states/spin/Ry/Unit Cell at Ef= 17.141341 eV
     lambda(    1)=  0.1321   gamma=   22.12 GHz
     lambda(    2)=  0.1039   gamma=   22.32 GHz
     lambda(    3)=  0.0433   gamma=    9.50 GHz
     lambda(    4)=  0.1058   gamma=  163.50 GHz
     lambda(    5)=  0.1902   gamma=  335.18 GHz
     lambda(    6)=  0.2776   gamma=  527.40 GHz
     lambda(    7)=  0.1368   gamma=  262.41 GHz
     lambda(    8)=  0.3045   gamma=  616.70 GHz
     lambda(    9)=  0.2234   gamma=  474.51 GHz
     lambda(   10)=  0.0036   gamma=   13.74 GHz
     lambda(   11)=  0.0024   gamma=    9.31 GHz
     lambda(   12)=  0.0018   gamma=    7.08 GHz
     lambda(   13)=  0.0071   gamma=   30.53 GHz
     lambda(   14)=  0.0135   gamma=   58.22 GHz
     lambda(   15)=  0.0035   gamma=   15.95 GHz
     lambda(   16)=  0.0310   gamma=  142.44 GHz
     lambda(   17)=  0.0155   gamma=   75.68 GHz
     lambda(   18)=  0.0110   gamma=   54.35 GHz
     lambda(   19)=  0.0147   gamma=  108.52 GHz
     lambda(   20)=  0.0366   gamma=  275.30 GHz
     lambda(   21)=  0.0355   gamma=  275.27 GHz
     Gaussian Broadening:   0.050 Ry, ngauss=   0
     DOS =  2.436152 states/spin/Ry/Unit Cell at Ef= 17.140123 eV
     lambda(    1)=  0.1365   gamma=   23.03 GHz
     lambda(    2)=  0.1082   gamma=   23.43 GHz
     lambda(    3)=  0.0467   gamma=   10.34 GHz
     lambda(    4)=  0.1132   gamma=  176.20 GHz
     lambda(    5)=  0.1904   gamma=  338.18 GHz
     lambda(    6)=  0.2775   gamma=  531.55 GHz
     lambda(    7)=  0.1408   gamma=  272.39 GHz
     lambda(    8)=  0.3043   gamma=  621.25 GHz
     lambda(    9)=  0.2257   gamma=  483.17 GHz
     lambda(   10)=  0.0036   gamma=   14.17 GHz
     lambda(   11)=  0.0026   gamma=   10.07 GHz
     lambda(   12)=  0.0019   gamma=    7.57 GHz
     lambda(   13)=  0.0079   gamma=   34.21 GHz
     lambda(   14)=  0.0143   gamma=   62.02 GHz
     lambda(   15)=  0.0036   gamma=   16.68 GHz
     lambda(   16)=  0.0309   gamma=  143.19 GHz
     lambda(   17)=  0.0155   gamma=   76.33 GHz
     lambda(   18)=  0.0116   gamma=   58.10 GHz
     lambda(   19)=  0.0160   gamma=  118.97 GHz
     lambda(   20)=  0.0361   gamma=  274.13 GHz
     lambda(   21)=  0.0373   gamma=  291.89 GHz
 
 
     Number of q in the star =   12
     List of q in the star:
          1  -0.866025400  -0.108253200  -0.108253200
          2  -0.108253200  -0.866025400   0.108253200
          3   0.108253200   0.866025400   0.108253200
          4  -0.108253200   0.866025400  -0.108253200
          5   0.108253200  -0.866025400  -0.108253200
          6  -0.108253200   0.108253200  -0.866025400
          7   0.108253200   0.108253200   0.866025400
          8  -0.108253200  -0.108253200   0.866025400
          9   0.108253200  -0.108253200  -0.866025400
         10   0.866025400   0.108253200  -0.108253200
         11   0.866025400   0.108253200   0.108253200
         12  -0.866025400  -0.108253200   0.108253200
 
     init_run     :      0.07s CPU      0.15s WALL (       1 calls)
     electrons    :     17.10s CPU     19.07s WALL (       1 calls)

     Called by init_run:
     wfcinit      :      0.00s CPU      0.04s WALL (       1 calls)
     potinit      :      0.00s CPU      0.03s WALL (       1 calls)
     hinit0       :      0.04s CPU      0.04s WALL (       1 calls)

     Called by electrons:
     c_bands      :     17.08s CPU     19.04s WALL (       1 calls)
     v_of_rho     :      0.01s CPU      0.05s WALL (       2 calls)
     newd         :      0.01s CPU      0.03s WALL (       2 calls)

     Called by c_bands:
     init_us_2    :      1.62s CPU      1.79s WALL (   64090 calls)
     cegterg      :      9.00s CPU      9.66s WALL (     582 calls)

     Called by *egterg:
     cdiaghg      :      3.05s CPU      3.29s WALL (    9075 calls)
     h_psi        :   1085.48s CPU   1292.78s WALL (  635305 calls)
     s_psi        :     12.72s CPU     14.32s WALL ( 1311123 calls)
     g_psi        :      0.03s CPU      0.03s WALL (    8495 calls)

     Called by h_psi:
     h_psi:calbec :     11.93s CPU     13.31s WALL (  635305 calls)
     vloc_psi     :   1061.93s CPU   1266.45s WALL (  635305 calls)
     add_vuspsi   :      6.11s CPU      6.87s WALL (  635305 calls)

     General routines
     calbec       :     54.92s CPU     58.44s WALL ( 1395803 calls)
     fft          :      0.57s CPU      0.85s WALL (    3479 calls)
     ffts         :      0.60s CPU      0.70s WALL (    6921 calls)
     fftw         :   1562.05s CPU   1872.52s WALL ( 9225549 calls)
     interpolate  :      0.35s CPU      0.43s WALL (     369 calls)
     davcio       :      8.98s CPU    400.49s WALL (  273495 calls)
 
     Parallel routines
 
     PHONON       :  41m40.77s CPU  54m56.27s WALL

     INITIALIZATION: 
     phq_setup    :      0.01s CPU      0.04s WALL (       1 calls)
     phq_init     :     15.99s CPU     18.56s WALL (       1 calls)
 
     phq_init     :     15.99s CPU     18.56s WALL (       1 calls)
     set_drhoc    :      0.05s CPU      0.05s WALL (       3 calls)
     init_vloc    :      0.00s CPU      0.01s WALL (       2 calls)
     init_us_1    :      0.06s CPU      0.13s WALL (       2 calls)
     newd         :      0.01s CPU      0.03s WALL (       2 calls)
     dvanqq       :      0.17s CPU      0.17s WALL (       1 calls)
     drho         :      9.69s CPU     11.13s WALL (       1 calls)
 
     DYNAMICAL MATRIX:
     dynmat0      :      3.62s CPU      3.99s WALL (       1 calls)
     phqscf       :   2433.93s CPU   3220.54s WALL (       1 calls)
     dynmatrix    :      0.13s CPU      0.16s WALL (       1 calls)
 
     phqscf       :   2433.93s CPU   3220.54s WALL (       1 calls)
     solve_linter :   2405.68s CPU   3184.61s WALL (      21 calls)
     drhodv       :     28.22s CPU     31.82s WALL (      21 calls)
 
     dynmat0      :      3.62s CPU      3.99s WALL (       1 calls)
     dynmat_us    :      3.58s CPU      3.93s WALL (       1 calls)
     d2ionq       :      0.01s CPU      0.01s WALL (       1 calls)
     dynmatcc     :      0.04s CPU      0.04s WALL (       1 calls)
 
     dynmat_us    :      3.58s CPU      3.93s WALL (       1 calls)
     addusdynmat  :      0.00s CPU      0.00s WALL (       1 calls)
 
     phqscf       :   2433.93s CPU   3220.54s WALL (       1 calls)
     solve_linter :   2405.68s CPU   3184.61s WALL (      21 calls)
 
     solve_linter :   2405.68s CPU   3184.61s WALL (      21 calls)
     dvqpsi_us    :      9.29s CPU     10.09s WALL (    6090 calls)
     ortho        :     34.92s CPU     36.31s WALL (   50170 calls)
     cgsolve      :   1129.02s CPU   1341.88s WALL (   50170 calls)
     incdrhoscf   :    227.07s CPU    275.19s WALL (   50170 calls)
     addusddens   :      3.00s CPU      4.47s WALL (     194 calls)
     vpsifft      :    299.64s CPU    360.67s WALL (   50170 calls)
     dv_of_drho   :      0.47s CPU      0.50s WALL (     173 calls)
     mix_pot      :     21.23s CPU     58.11s WALL (     173 calls)
     psymdvscf    :      7.62s CPU      7.90s WALL (     173 calls)
     newdq        :      2.50s CPU      2.51s WALL (     173 calls)
     adddvscf     :      1.61s CPU      1.82s WALL (   50170 calls)
     drhodvus     :      6.83s CPU     12.26s WALL (      21 calls)
 
     dvqpsi_us    :      9.29s CPU     10.09s WALL (    6090 calls)
     dvqpsi_us_on :      3.43s CPU      3.64s WALL (    6090 calls)
 
     cgsolve      :   1129.02s CPU   1341.88s WALL (   50170 calls)
     ch_psi       :   1120.45s CPU   1332.17s WALL (  625648 calls)
 
     ch_psi       :   1120.45s CPU   1332.17s WALL (  625648 calls)
     h_psi        :   1085.48s CPU   1292.78s WALL (  635305 calls)
     last         :     27.13s CPU     30.40s WALL (  625648 calls)
 
     h_psi        :   1085.48s CPU   1292.78s WALL (  635305 calls)
     add_vuspsi   :      6.11s CPU      6.87s WALL (  635305 calls)
 
     incdrhoscf   :    227.07s CPU    275.19s WALL (   50170 calls)
     addusdbec    :      1.65s CPU      1.82s WALL (   56260 calls)
 
     drhodvus     :      6.83s CPU     12.26s WALL (      21 calls)
 
      Electron-phonon coupling
     elphel       :     84.68s CPU    120.10s WALL (      21 calls)
     elphsum      :     32.73s CPU     33.17s WALL (       1 calls)
 
      General routines
     calbec       :     54.92s CPU     58.44s WALL ( 1395803 calls)
     fft          :      0.57s CPU      0.85s WALL (    3479 calls)
     ffts         :      0.60s CPU      0.70s WALL (    6921 calls)
     fftw         :   1562.05s CPU   1872.52s WALL ( 9225549 calls)
     davcio       :      8.98s CPU    400.49s WALL (  273495 calls)
     write_rec    :      0.12s CPU     14.01s WALL (     194 calls)
 
 
     PHONON       :  41m40.77s CPU  54m56.27s WALL

 
   This run was terminated on:  12: 7:27  22Jul2022            

=------------------------------------------------------------------------------=
   JOB DONE.
=------------------------------------------------------------------------------=
