
     Program PHONON v.6.8 starts on 21Jul2022 at 15:43:25 

     This program is part of the open-source Quantum ESPRESSO suite
     for quantum simulation of materials; please cite
         "P. Giannozzi et al., J. Phys.:Condens. Matter 21 395502 (2009);
         "P. Giannozzi et al., J. Phys.:Condens. Matter 29 465901 (2017);
         "P. Giannozzi et al., J. Chem. Phys. 152 154105 (2020);
          URL http://www.quantum-espresso.org", 
     in publications or presentations arising from this work. More details at
     http://www.quantum-espresso.org/quote

     Parallel version (MPI), running on    48 processors

     MPI processes distributed on     1 nodes
     K-points division:     npool     =       4
     R & G space division:  proc/nbgrp/npool/nimage =      12
     188846 MiB available memory on the printing compute node when the environment starts
 
     Waiting for input...
     Reading input from standard input

     Reading xml data from directory:

     ./tmp/Ca1H6.save/

     IMPORTANT: XC functional enforced from input :
     Exchange-correlation= PBE
                           (   1   4   3   4   0   0   0)
     Any further DFT definition will be discarded
     Please, verify this is what you really want

 
     Parallelization info
     --------------------
     sticks:   dense  smooth     PW     G-vecs:    dense   smooth      PW
     Min         139      46     17                 3602      698     155
     Max         140      47     18                 3604      701     157
     Sum        1669     557    205                43227     8391    1865
 
     Using Slab Decomposition
 
     Reading collected, re-writing distributed wavefunctions

     Saving dvscf to file. Distribute only q points, not irreducible represetations.

     Calculation of q =    0.0000000   0.0000000   0.4330127

     Subspace diagonalization in iterative solution of the eigenvalue problem:
     a serial algorithm will be used

 
     Parallelization info
     --------------------
     sticks:   dense  smooth     PW     G-vecs:    dense   smooth      PW
     Min         139      46     17                 3602      698     155
     Max         140      47     18                 3604      701     157
     Sum        1669     557    205                43227     8391    1865
 
     Using Slab Decomposition
 

     Title: 
     Electron-phonon coefficients for Ca1H6                                     


     bravais-lattice index     =            0
     lattice parameter (alat)  =       5.5613  a.u.
     unit-cell volume          =     132.4087 (a.u.)^3
     number of atoms/cell      =            7
     number of atomic types    =            2
     number of electrons       =        16.00
     number of Kohn-Sham states=           12
     kinetic-energy cutoff     =      60.0000  Ry
     charge density cutoff     =     720.0000  Ry
     Exchange-correlation= PBE
                           (   1   4   3   4   0   0   0)

     celldm(1)=   5.561340  celldm(2)=   0.000000  celldm(3)=   0.000000
     celldm(4)=   0.000000  celldm(5)=   0.000000  celldm(6)=   0.000000

     crystal axes: (cart. coord. in units of alat)
               a(1) = (  -0.577350   0.577350   0.577350 )  
               a(2) = (   0.577350  -0.577350   0.577350 )  
               a(3) = (   0.577350   0.577350  -0.577350 )  

     reciprocal axes: (cart. coord. in units 2 pi/alat)
               b(1) = ( -0.000000  0.866025  0.866025 )  
               b(2) = (  0.866025 -0.000000  0.866025 )  
               b(3) = (  0.866025  0.866025  0.000000 )  


     PseudoPot. # 1 for Ca read from file:
     /work/home/mayuan/code/my_script/scripts_tests/out2/200.0/pp/ca_pbe_v1.uspp.F.UPF
     MD5 check sum: 403a4c14b9e4d4dfdc3024c9a3812218
     Pseudo is Ultrasoft + core correction, Zval = 10.0
     Generated by new atomic code, or converted to UPF format
     Using radial grid of  845 points,  6 beta functions with: 
                l(1) =   0
                l(2) =   0
                l(3) =   1
                l(4) =   1
                l(5) =   2
                l(6) =   2
     Q(r) pseudized with  8 coefficients,  rinner =    1.500   1.500   1.500
                                                       1.500   1.500

     PseudoPot. # 2 for H  read from file:
     /work/home/mayuan/code/my_script/scripts_tests/out2/200.0/pp/h_pbe_v1.uspp.F.UPF
     MD5 check sum: 3408e3ff4ec8b0a4e358431e7e038a48
     Pseudo is Ultrasoft, Zval =  1.0
     Generated by new atomic code, or converted to UPF format
     Using radial grid of  615 points,  2 beta functions with: 
                l(1) =   0
                l(2) =   0
     Q(r) pseudized with  8 coefficients,  rinner =    0.700

     atomic species   valence    mass     pseudopotential
        Ca            10.00    40.07800     Ca( 1.00)
        H              1.00     1.00794     H ( 1.00)

     48 Sym. Ops., with inversion, found



   Cartesian axes

     site n.     atom                  positions (alat units)
         1           Ca  tau(   1) = (   0.0000000   0.0000000   0.0000000  )
         2           H   tau(   2) = (   0.2886751   0.0000000   0.5773503  )
         3           H   tau(   3) = (   0.2886751   0.5773503   0.0000000  )
         4           H   tau(   4) = (   0.5773503   0.2886751   0.0000000  )
         5           H   tau(   5) = (   0.0000000   0.2886751   0.5773503  )
         6           H   tau(   6) = (   0.0000000   0.5773503   0.2886751  )
         7           H   tau(   7) = (   0.5773503   0.0000000   0.2886751  )

     number of k points=  1296  Methfessel-Paxton smearing, width (Ry)=  0.0200

     Number of k-points >= 100: set verbosity='high' to print them.

     Dense  grid:    43227 G-vectors     FFT dimensions: (  48,  48,  48)

     Smooth grid:     8391 G-vectors     FFT dimensions: (  27,  27,  27)

     Estimated max dynamical RAM per process >       8.34 MB

     Estimated total dynamical RAM >     400.25 MB

     The potential is recalculated from file :
     ./tmp/_ph0/Ca1H6.save/charge-density

     Starting wfcs are   16 atomic wfcs

     Band Structure Calculation
     Davidson diagonalization with overlap

     ethr =  6.25E-11,  avg # of iterations = 14.8

     total cpu time spent up to now is        9.1 secs

     End of band structure calculation

     Number of k-points >= 100: set verbosity='high' to print the bands.

     the Fermi energy is    17.0980 ev

     Writing output data file ./tmp/_ph0/Ca1H6.save/

     Electron-phonon coefficients for Ca1H6                                     

     bravais-lattice index     =            0
     lattice parameter (alat)  =       5.5613  a.u.
     unit-cell volume          =     132.4087 (a.u.)^3
     number of atoms/cell      =            7
     number of atomic types    =            2
     kinetic-energy cut-off    =      60.0000  Ry
     charge density cut-off    =     720.0000  Ry
     convergence threshold     =      1.0E-16
     beta                      =       0.7000
     number of iterations used =            4
     Exchange-correlation= PBE
                           (   1   4   3   4   0   0   0)


     celldm(1)=    5.56134  celldm(2)=    0.00000  celldm(3)=    0.00000
     celldm(4)=    0.00000  celldm(5)=    0.00000  celldm(6)=    0.00000

     crystal axes: (cart. coord. in units of alat)
               a(1) = ( -0.5774  0.5774  0.5774 )  
               a(2) = (  0.5774 -0.5774  0.5774 )  
               a(3) = (  0.5774  0.5774 -0.5774 )  

     reciprocal axes: (cart. coord. in units 2 pi/alat)
               b(1) = ( -0.0000  0.8660  0.8660 )  
               b(2) = (  0.8660 -0.0000  0.8660 )  
               b(3) = (  0.8660  0.8660  0.0000 )  


     Atoms inside the unit cell: 

     Cartesian axes

     site n.  atom      mass           positions (alat units)
        1     Ca  40.0780   tau(    1) = (    0.00000    0.00000    0.00000  )
        2     H    1.0079   tau(    2) = (    0.28868    0.00000    0.57735  )
        3     H    1.0079   tau(    3) = (    0.28868    0.57735    0.00000  )
        4     H    1.0079   tau(    4) = (    0.57735    0.28868    0.00000  )
        5     H    1.0079   tau(    5) = (    0.00000    0.28868    0.57735  )
        6     H    1.0079   tau(    6) = (    0.00000    0.57735    0.28868  )
        7     H    1.0079   tau(    7) = (    0.57735    0.00000    0.28868  )

     Computing dynamical matrix for 
                    q = (   0.0000000   0.0000000   0.4330127 )
 
      8 Sym.Ops. (no q -> -q+G )


     G cutoff =  564.0682  (   3604 G-vectors)     FFT grid: ( 48, 48, 48)
     G cutoff =  188.0227  (    699 G-vectors)  smooth grid: ( 27, 27, 27)

     number of k points=  1296  Methfessel-Paxton smearing, width (Ry)=  0.0200

     PseudoPot. # 1 for Ca read from file:
     /work/home/mayuan/code/my_script/scripts_tests/out2/200.0/pp/ca_pbe_v1.uspp.F.UPF
     MD5 check sum: 403a4c14b9e4d4dfdc3024c9a3812218
     Pseudo is Ultrasoft + core correction, Zval = 10.0
     Generated by new atomic code, or converted to UPF format
     Using radial grid of  845 points,  6 beta functions with: 
                l(1) =   0
                l(2) =   0
                l(3) =   1
                l(4) =   1
                l(5) =   2
                l(6) =   2
     Q(r) pseudized with  8 coefficients,  rinner =    1.500   1.500   1.500
                                                       1.500   1.500

     PseudoPot. # 2 for H  read from file:
     /work/home/mayuan/code/my_script/scripts_tests/out2/200.0/pp/h_pbe_v1.uspp.F.UPF
     MD5 check sum: 3408e3ff4ec8b0a4e358431e7e038a48
     Pseudo is Ultrasoft, Zval =  1.0
     Generated by new atomic code, or converted to UPF format
     Using radial grid of  615 points,  2 beta functions with: 
                l(1) =   0
                l(2) =   0
     Q(r) pseudized with  8 coefficients,  rinner =    0.700

     Mode symmetry, C_4v (4mm)  point group:


     Atomic displacements:
     There are   15 irreducible representations

     Representation     1      1 modes -  To be done

     Representation     2      1 modes -  To be done

     Representation     3      1 modes -  To be done

     Representation     4      1 modes -  To be done

     Representation     5      1 modes -  To be done

     Representation     6      1 modes -  To be done

     Representation     7      1 modes -  To be done

     Representation     8      1 modes -  To be done

     Representation     9      1 modes -  To be done

     Representation    10      2 modes -  To be done

     Representation    11      2 modes -  To be done

     Representation    12      2 modes -  To be done

     Representation    13      2 modes -  To be done

     Representation    14      2 modes -  To be done

     Representation    15      2 modes -  To be done



     Alpha used in Ewald sum =   2.8000
     PHONON       :     16.59s CPU     20.68s WALL



     Representation #   1 mode #   1

     Self-consistent Calculation

      iter #   1 total cpu time :    24.9 secs   av.it.:   4.2
      thresh= 1.000E-02 alpha_mix =  0.700 |ddv_scf|^2 =  7.703E-06

      iter #   2 total cpu time :    33.2 secs   av.it.:   8.9
      thresh= 2.775E-04 alpha_mix =  0.700 |ddv_scf|^2 =  7.732E-05

      iter #   3 total cpu time :    39.6 secs   av.it.:   7.4
      thresh= 8.793E-04 alpha_mix =  0.700 |ddv_scf|^2 =  5.458E-08

      iter #   4 total cpu time :    46.4 secs   av.it.:   9.2
      thresh= 2.336E-05 alpha_mix =  0.700 |ddv_scf|^2 =  1.051E-09

      iter #   5 total cpu time :    55.2 secs   av.it.:   9.3
      thresh= 3.242E-06 alpha_mix =  0.700 |ddv_scf|^2 =  1.828E-11

      iter #   6 total cpu time :    63.7 secs   av.it.:   9.3
      thresh= 4.276E-07 alpha_mix =  0.700 |ddv_scf|^2 =  5.526E-13

      iter #   7 total cpu time :    73.8 secs   av.it.:   9.3
      thresh= 7.434E-08 alpha_mix =  0.700 |ddv_scf|^2 =  1.568E-13

      iter #   8 total cpu time :    82.2 secs   av.it.:   8.7
      thresh= 3.960E-08 alpha_mix =  0.700 |ddv_scf|^2 =  5.899E-13

      iter #   9 total cpu time :    93.1 secs   av.it.:   7.7
      thresh= 7.681E-08 alpha_mix =  0.700 |ddv_scf|^2 =  6.456E-15

      iter #  10 total cpu time :   104.6 secs   av.it.:   8.3
      thresh= 8.035E-09 alpha_mix =  0.700 |ddv_scf|^2 =  6.408E-15

      iter #  11 total cpu time :   115.0 secs   av.it.:   7.9
      thresh= 8.005E-09 alpha_mix =  0.700 |ddv_scf|^2 =  1.369E-17

     End of self-consistent calculation

     Convergence has been achieved 


     Representation #   2 mode #   2

     Self-consistent Calculation

      iter #   1 total cpu time :   123.3 secs   av.it.:   4.1
      thresh= 1.000E-02 alpha_mix =  0.700 |ddv_scf|^2 =  1.989E-05

      iter #   2 total cpu time :   128.8 secs   av.it.:   8.7
      thresh= 4.460E-04 alpha_mix =  0.700 |ddv_scf|^2 =  2.130E-04

      iter #   3 total cpu time :   135.7 secs   av.it.:   7.4
      thresh= 1.459E-03 alpha_mix =  0.700 |ddv_scf|^2 =  9.929E-10

      iter #   4 total cpu time :   143.4 secs   av.it.:   9.5
      thresh= 3.151E-06 alpha_mix =  0.700 |ddv_scf|^2 =  8.059E-11

      iter #   5 total cpu time :   151.5 secs   av.it.:   9.2
      thresh= 8.977E-07 alpha_mix =  0.700 |ddv_scf|^2 =  6.260E-12

      iter #   6 total cpu time :   160.7 secs   av.it.:   8.9
      thresh= 2.502E-07 alpha_mix =  0.700 |ddv_scf|^2 =  2.399E-13

      iter #   7 total cpu time :   168.7 secs   av.it.:   9.1
      thresh= 4.897E-08 alpha_mix =  0.700 |ddv_scf|^2 =  1.262E-14

      iter #   8 total cpu time :   175.4 secs   av.it.:   9.3
      thresh= 1.123E-08 alpha_mix =  0.700 |ddv_scf|^2 =  1.203E-16

      iter #   9 total cpu time :   183.4 secs   av.it.:   8.9
      thresh= 1.097E-09 alpha_mix =  0.700 |ddv_scf|^2 =  4.353E-17

     End of self-consistent calculation

     Convergence has been achieved 


     Representation #   3 mode #   3

     Self-consistent Calculation

      iter #   1 total cpu time :   192.9 secs   av.it.:   6.9
      thresh= 1.000E-02 alpha_mix =  0.700 |ddv_scf|^2 =  9.867E-04

      iter #   2 total cpu time :   201.4 secs   av.it.:   8.8
      thresh= 3.141E-03 alpha_mix =  0.700 |ddv_scf|^2 =  1.066E-02

      iter #   3 total cpu time :   210.1 secs   av.it.:   7.4
      thresh= 1.000E-02 alpha_mix =  0.700 |ddv_scf|^2 =  9.531E-07

      iter #   4 total cpu time :   216.4 secs   av.it.:   9.4
      thresh= 9.763E-05 alpha_mix =  0.700 |ddv_scf|^2 =  5.391E-08

      iter #   5 total cpu time :   223.1 secs   av.it.:   9.1
      thresh= 2.322E-05 alpha_mix =  0.700 |ddv_scf|^2 =  2.051E-09

      iter #   6 total cpu time :   230.8 secs   av.it.:   8.6
      thresh= 4.529E-06 alpha_mix =  0.700 |ddv_scf|^2 =  7.494E-11

      iter #   7 total cpu time :   238.3 secs   av.it.:   8.7
      thresh= 8.657E-07 alpha_mix =  0.700 |ddv_scf|^2 =  3.412E-13

      iter #   8 total cpu time :   245.2 secs   av.it.:   8.6
      thresh= 5.842E-08 alpha_mix =  0.700 |ddv_scf|^2 =  7.651E-15

      iter #   9 total cpu time :   252.8 secs   av.it.:   9.1
      thresh= 8.747E-09 alpha_mix =  0.700 |ddv_scf|^2 =  1.718E-15

      iter #  10 total cpu time :   257.8 secs   av.it.:   8.5
      thresh= 4.144E-09 alpha_mix =  0.700 |ddv_scf|^2 =  3.769E-17

     End of self-consistent calculation

     Convergence has been achieved 


     Representation #   4 mode #   4

     Self-consistent Calculation

      iter #   1 total cpu time :   265.5 secs   av.it.:   4.5
      thresh= 1.000E-02 alpha_mix =  0.700 |ddv_scf|^2 =  3.055E-05

      iter #   2 total cpu time :   274.2 secs   av.it.:   8.8
      thresh= 5.527E-04 alpha_mix =  0.700 |ddv_scf|^2 =  3.240E-04

      iter #   3 total cpu time :   282.2 secs   av.it.:   7.4
      thresh= 1.800E-03 alpha_mix =  0.700 |ddv_scf|^2 =  1.432E-08

      iter #   4 total cpu time :   290.3 secs   av.it.:   9.4
      thresh= 1.197E-05 alpha_mix =  0.700 |ddv_scf|^2 =  1.232E-09

      iter #   5 total cpu time :   298.0 secs   av.it.:   9.3
      thresh= 3.510E-06 alpha_mix =  0.700 |ddv_scf|^2 =  1.335E-11

      iter #   6 total cpu time :   307.2 secs   av.it.:   9.4
      thresh= 3.653E-07 alpha_mix =  0.700 |ddv_scf|^2 =  8.695E-13

      iter #   7 total cpu time :   317.9 secs   av.it.:   9.2
      thresh= 9.324E-08 alpha_mix =  0.700 |ddv_scf|^2 =  9.339E-15

      iter #   8 total cpu time :   326.9 secs   av.it.:   9.5
      thresh= 9.664E-09 alpha_mix =  0.700 |ddv_scf|^2 =  1.139E-14

      iter #   9 total cpu time :   336.0 secs   av.it.:   8.2
      thresh= 1.067E-08 alpha_mix =  0.700 |ddv_scf|^2 =  7.767E-15

      iter #  10 total cpu time :   342.6 secs   av.it.:   8.0
      thresh= 8.813E-09 alpha_mix =  0.700 |ddv_scf|^2 =  6.117E-16

      iter #  11 total cpu time :   351.0 secs   av.it.:   8.2
      thresh= 2.473E-09 alpha_mix =  0.700 |ddv_scf|^2 =  3.183E-17

     End of self-consistent calculation

     Convergence has been achieved 


     Representation #   5 mode #   5

     Self-consistent Calculation

      iter #   1 total cpu time :   359.2 secs   av.it.:   2.9
      thresh= 1.000E-02 alpha_mix =  0.700 |ddv_scf|^2 =  4.411E-09

      iter #   2 total cpu time :   366.6 secs   av.it.:   8.2
      thresh= 6.641E-06 alpha_mix =  0.700 |ddv_scf|^2 =  4.186E-10

      iter #   3 total cpu time :   374.6 secs   av.it.:   7.2
      thresh= 2.046E-06 alpha_mix =  0.700 |ddv_scf|^2 =  1.970E-13

      iter #   4 total cpu time :   382.2 secs   av.it.:   7.5
      thresh= 4.439E-08 alpha_mix =  0.700 |ddv_scf|^2 =  7.973E-16

      iter #   5 total cpu time :   388.1 secs   av.it.:   7.2
      thresh= 2.824E-09 alpha_mix =  0.700 |ddv_scf|^2 =  8.057E-18

     End of self-consistent calculation

     Convergence has been achieved 


     Representation #   6 mode #   6

     Self-consistent Calculation

      iter #   1 total cpu time :   396.7 secs   av.it.:   3.6
      thresh= 1.000E-02 alpha_mix =  0.700 |ddv_scf|^2 =  2.163E-07

      iter #   2 total cpu time :   404.6 secs   av.it.:   8.7
      thresh= 4.650E-05 alpha_mix =  0.700 |ddv_scf|^2 =  4.529E-08

      iter #   3 total cpu time :   414.0 secs   av.it.:   8.5
      thresh= 2.128E-05 alpha_mix =  0.700 |ddv_scf|^2 =  1.431E-10

      iter #   4 total cpu time :   423.6 secs   av.it.:   8.4
      thresh= 1.196E-06 alpha_mix =  0.700 |ddv_scf|^2 =  9.998E-13

      iter #   5 total cpu time :   430.6 secs   av.it.:   8.3
      thresh= 9.999E-08 alpha_mix =  0.700 |ddv_scf|^2 =  8.978E-15

      iter #   6 total cpu time :   439.3 secs   av.it.:   8.9
      thresh= 9.475E-09 alpha_mix =  0.700 |ddv_scf|^2 =  6.882E-17

     End of self-consistent calculation

     Convergence has been achieved 


     Representation #   7 mode #   7

     Self-consistent Calculation

      iter #   1 total cpu time :   447.6 secs   av.it.:   3.6
      thresh= 1.000E-02 alpha_mix =  0.700 |ddv_scf|^2 =  1.655E-07

      iter #   2 total cpu time :   455.8 secs   av.it.:   8.7
      thresh= 4.069E-05 alpha_mix =  0.700 |ddv_scf|^2 =  3.192E-08

      iter #   3 total cpu time :   464.5 secs   av.it.:   8.5
      thresh= 1.787E-05 alpha_mix =  0.700 |ddv_scf|^2 =  1.973E-10

      iter #   4 total cpu time :   471.3 secs   av.it.:   8.4
      thresh= 1.405E-06 alpha_mix =  0.700 |ddv_scf|^2 =  2.261E-12

      iter #   5 total cpu time :   479.8 secs   av.it.:   8.3
      thresh= 1.504E-07 alpha_mix =  0.700 |ddv_scf|^2 =  1.794E-14

      iter #   6 total cpu time :   488.9 secs   av.it.:   8.8
      thresh= 1.339E-08 alpha_mix =  0.700 |ddv_scf|^2 =  8.466E-17

     End of self-consistent calculation

     Convergence has been achieved 


     Representation #   8 mode #   8

     Self-consistent Calculation

      iter #   1 total cpu time :   497.6 secs   av.it.:   3.6
      thresh= 1.000E-02 alpha_mix =  0.700 |ddv_scf|^2 =  1.055E-07

      iter #   2 total cpu time :   506.9 secs   av.it.:   8.8
      thresh= 3.247E-05 alpha_mix =  0.700 |ddv_scf|^2 =  2.119E-08

      iter #   3 total cpu time :   515.5 secs   av.it.:   8.5
      thresh= 1.456E-05 alpha_mix =  0.700 |ddv_scf|^2 =  1.497E-10

      iter #   4 total cpu time :   522.7 secs   av.it.:   8.4
      thresh= 1.224E-06 alpha_mix =  0.700 |ddv_scf|^2 =  9.434E-13

      iter #   5 total cpu time :   531.1 secs   av.it.:   8.4
      thresh= 9.713E-08 alpha_mix =  0.700 |ddv_scf|^2 =  8.390E-15

      iter #   6 total cpu time :   540.2 secs   av.it.:   8.9
      thresh= 9.160E-09 alpha_mix =  0.700 |ddv_scf|^2 =  5.130E-17

     End of self-consistent calculation

     Convergence has been achieved 


     Representation #   9 mode #   9

     Self-consistent Calculation

      iter #   1 total cpu time :   549.6 secs   av.it.:   3.8
      thresh= 1.000E-02 alpha_mix =  0.700 |ddv_scf|^2 =  7.113E-08

      iter #   2 total cpu time :   556.2 secs   av.it.:   8.6
      thresh= 2.667E-05 alpha_mix =  0.700 |ddv_scf|^2 =  8.217E-10

      iter #   3 total cpu time :   563.3 secs   av.it.:   8.7
      thresh= 2.867E-06 alpha_mix =  0.700 |ddv_scf|^2 =  3.048E-11

      iter #   4 total cpu time :   570.7 secs   av.it.:   8.5
      thresh= 5.521E-07 alpha_mix =  0.700 |ddv_scf|^2 =  1.087E-13

      iter #   5 total cpu time :   578.3 secs   av.it.:   9.0
      thresh= 3.297E-08 alpha_mix =  0.700 |ddv_scf|^2 =  5.388E-16

      iter #   6 total cpu time :   586.7 secs   av.it.:   8.3
      thresh= 2.321E-09 alpha_mix =  0.700 |ddv_scf|^2 =  5.628E-18

     End of self-consistent calculation

     Convergence has been achieved 


     Representation #  10 modes #  10  11

     Self-consistent Calculation

      iter #   1 total cpu time :   600.2 secs   av.it.:   3.5
      thresh= 1.000E-02 alpha_mix =  0.700 |ddv_scf|^2 =  4.922E-09

      iter #   2 total cpu time :   615.0 secs   av.it.:  10.2
      thresh= 7.015E-06 alpha_mix =  0.700 |ddv_scf|^2 =  2.815E-10

      iter #   3 total cpu time :   631.6 secs   av.it.:  10.3
      thresh= 1.678E-06 alpha_mix =  0.700 |ddv_scf|^2 =  3.543E-11

      iter #   4 total cpu time :   647.2 secs   av.it.:  10.1
      thresh= 5.952E-07 alpha_mix =  0.700 |ddv_scf|^2 =  1.353E-12

      iter #   5 total cpu time :   661.6 secs   av.it.:  10.3
      thresh= 1.163E-07 alpha_mix =  0.700 |ddv_scf|^2 =  2.959E-14

      iter #   6 total cpu time :   675.7 secs   av.it.:  10.2
      thresh= 1.720E-08 alpha_mix =  0.700 |ddv_scf|^2 =  4.023E-16

      iter #   7 total cpu time :   689.8 secs   av.it.:  10.0
      thresh= 2.006E-09 alpha_mix =  0.700 |ddv_scf|^2 =  1.244E-17

     End of self-consistent calculation

     Convergence has been achieved 


     Representation #  11 modes #  12  13

     Self-consistent Calculation

      iter #   1 total cpu time :   711.6 secs   av.it.:   3.8
      thresh= 1.000E-02 alpha_mix =  0.700 |ddv_scf|^2 =  2.759E-08

      iter #   2 total cpu time :   726.4 secs   av.it.:  10.2
      thresh= 1.661E-05 alpha_mix =  0.700 |ddv_scf|^2 =  4.475E-09

      iter #   3 total cpu time :   740.4 secs   av.it.:  10.0
      thresh= 6.690E-06 alpha_mix =  0.700 |ddv_scf|^2 =  5.821E-11

      iter #   4 total cpu time :   755.3 secs   av.it.:  10.0
      thresh= 7.629E-07 alpha_mix =  0.700 |ddv_scf|^2 =  1.097E-12

      iter #   5 total cpu time :   769.9 secs   av.it.:  10.2
      thresh= 1.048E-07 alpha_mix =  0.700 |ddv_scf|^2 =  1.935E-14

      iter #   6 total cpu time :   785.2 secs   av.it.:  10.3
      thresh= 1.391E-08 alpha_mix =  0.700 |ddv_scf|^2 =  2.598E-16

      iter #   7 total cpu time :   799.2 secs   av.it.:   9.9
      thresh= 1.612E-09 alpha_mix =  0.700 |ddv_scf|^2 =  1.773E-17

     End of self-consistent calculation

     Convergence has been achieved 


     Representation #  12 modes #  14  15

     Self-consistent Calculation

      iter #   1 total cpu time :   819.0 secs   av.it.:   6.5
      thresh= 1.000E-02 alpha_mix =  0.700 |ddv_scf|^2 =  4.127E-06

      iter #   2 total cpu time :   834.3 secs   av.it.:  10.5
      thresh= 2.032E-04 alpha_mix =  0.700 |ddv_scf|^2 =  8.955E-07

      iter #   3 total cpu time :   850.8 secs   av.it.:  10.0
      thresh= 9.463E-05 alpha_mix =  0.700 |ddv_scf|^2 =  1.031E-09

      iter #   4 total cpu time :   866.4 secs   av.it.:  10.3
      thresh= 3.212E-06 alpha_mix =  0.700 |ddv_scf|^2 =  6.271E-11

      iter #   5 total cpu time :   881.9 secs   av.it.:  10.1
      thresh= 7.919E-07 alpha_mix =  0.700 |ddv_scf|^2 =  6.107E-13

      iter #   6 total cpu time :   897.0 secs   av.it.:  10.2
      thresh= 7.815E-08 alpha_mix =  0.700 |ddv_scf|^2 =  5.528E-15

      iter #   7 total cpu time :   911.1 secs   av.it.:   9.8
      thresh= 7.435E-09 alpha_mix =  0.700 |ddv_scf|^2 =  2.993E-16

      iter #   8 total cpu time :   924.5 secs   av.it.:   9.9
      thresh= 1.730E-09 alpha_mix =  0.700 |ddv_scf|^2 =  1.495E-18

     End of self-consistent calculation

     Convergence has been achieved 


     Representation #  13 modes #  16  17

     Self-consistent Calculation

      iter #   1 total cpu time :   944.1 secs   av.it.:   3.9
      thresh= 1.000E-02 alpha_mix =  0.700 |ddv_scf|^2 =  2.547E-08

      iter #   2 total cpu time :   958.6 secs   av.it.:  10.5
      thresh= 1.596E-05 alpha_mix =  0.700 |ddv_scf|^2 =  3.124E-09

      iter #   3 total cpu time :   973.9 secs   av.it.:  10.4
      thresh= 5.589E-06 alpha_mix =  0.700 |ddv_scf|^2 =  9.188E-11

      iter #   4 total cpu time :   988.5 secs   av.it.:  10.3
      thresh= 9.585E-07 alpha_mix =  0.700 |ddv_scf|^2 =  2.491E-12

      iter #   5 total cpu time :  1002.5 secs   av.it.:  10.3
      thresh= 1.578E-07 alpha_mix =  0.700 |ddv_scf|^2 =  6.194E-14

      iter #   6 total cpu time :  1017.7 secs   av.it.:  10.1
      thresh= 2.489E-08 alpha_mix =  0.700 |ddv_scf|^2 =  4.404E-16

      iter #   7 total cpu time :  1033.3 secs   av.it.:  10.1
      thresh= 2.098E-09 alpha_mix =  0.700 |ddv_scf|^2 =  2.412E-17

     End of self-consistent calculation

     Convergence has been achieved 


     Representation #  14 modes #  18  19

     Self-consistent Calculation

      iter #   1 total cpu time :  1056.1 secs   av.it.:   4.0
      thresh= 1.000E-02 alpha_mix =  0.700 |ddv_scf|^2 =  4.560E-08

      iter #   2 total cpu time :  1070.6 secs   av.it.:  10.3
      thresh= 2.135E-05 alpha_mix =  0.700 |ddv_scf|^2 =  6.880E-09

      iter #   3 total cpu time :  1083.7 secs   av.it.:  10.2
      thresh= 8.295E-06 alpha_mix =  0.700 |ddv_scf|^2 =  8.392E-11

      iter #   4 total cpu time :  1099.3 secs   av.it.:  10.3
      thresh= 9.161E-07 alpha_mix =  0.700 |ddv_scf|^2 =  2.671E-12

      iter #   5 total cpu time :  1114.0 secs   av.it.:  10.3
      thresh= 1.634E-07 alpha_mix =  0.700 |ddv_scf|^2 =  5.266E-14

      iter #   6 total cpu time :  1128.7 secs   av.it.:  10.0
      thresh= 2.295E-08 alpha_mix =  0.700 |ddv_scf|^2 =  4.313E-16

      iter #   7 total cpu time :  1143.0 secs   av.it.:  10.0
      thresh= 2.077E-09 alpha_mix =  0.700 |ddv_scf|^2 =  2.253E-17

     End of self-consistent calculation

     Convergence has been achieved 


     Representation #  15 modes #  20  21

     Self-consistent Calculation

      iter #   1 total cpu time :  1161.2 secs   av.it.:   4.0
      thresh= 1.000E-02 alpha_mix =  0.700 |ddv_scf|^2 =  5.001E-08

      iter #   2 total cpu time :  1176.1 secs   av.it.:  10.1
      thresh= 2.236E-05 alpha_mix =  0.700 |ddv_scf|^2 =  8.311E-09

      iter #   3 total cpu time :  1190.6 secs   av.it.:   9.9
      thresh= 9.116E-06 alpha_mix =  0.700 |ddv_scf|^2 =  7.809E-11

      iter #   4 total cpu time :  1205.6 secs   av.it.:  10.0
      thresh= 8.837E-07 alpha_mix =  0.700 |ddv_scf|^2 =  2.079E-12

      iter #   5 total cpu time :  1222.6 secs   av.it.:  10.0
      thresh= 1.442E-07 alpha_mix =  0.700 |ddv_scf|^2 =  4.843E-14

      iter #   6 total cpu time :  1236.2 secs   av.it.:   9.9
      thresh= 2.201E-08 alpha_mix =  0.700 |ddv_scf|^2 =  5.254E-16

      iter #   7 total cpu time :  1250.3 secs   av.it.:   9.7
      thresh= 2.292E-09 alpha_mix =  0.700 |ddv_scf|^2 =  2.794E-17

     End of self-consistent calculation

     Convergence has been achieved 
 
     Number of q in the star =    6
     List of q in the star:
          1   0.000000000   0.000000000   0.433012700
          2   0.433012700  -0.000000000   0.000000000
          3  -0.433012700  -0.000000000  -0.000000000
          4  -0.000000000   0.433012700   0.000000000
          5  -0.000000000  -0.433012700  -0.000000000
          6  -0.000000000  -0.000000000  -0.433012700

     Diagonalizing the dynamical matrix

     q = (    0.000000000   0.000000000   0.433012700 ) 

 **************************************************************************
     freq (    1) =       6.503650 [THz] =     216.938402 [cm-1]
     freq (    2) =       6.503650 [THz] =     216.938402 [cm-1]
     freq (    3) =      14.075024 [THz] =     469.492251 [cm-1]
     freq (    4) =      26.906838 [THz] =     897.515492 [cm-1]
     freq (    5) =      28.557053 [THz] =     952.560756 [cm-1]
     freq (    6) =      28.557053 [THz] =     952.560756 [cm-1]
     freq (    7) =      35.557268 [THz] =    1186.062793 [cm-1]
     freq (    8) =      36.230853 [THz] =    1208.531158 [cm-1]
     freq (    9) =      36.881757 [THz] =    1230.242993 [cm-1]
     freq (   10) =      36.881757 [THz] =    1230.242993 [cm-1]
     freq (   11) =      40.564272 [THz] =    1353.078470 [cm-1]
     freq (   12) =      40.564272 [THz] =    1353.078470 [cm-1]
     freq (   13) =      42.911217 [THz] =    1431.364131 [cm-1]
     freq (   14) =      42.911217 [THz] =    1431.364131 [cm-1]
     freq (   15) =      44.106070 [THz] =    1471.220121 [cm-1]
     freq (   16) =      44.283197 [THz] =    1477.128464 [cm-1]
     freq (   17) =      44.630674 [THz] =    1488.719038 [cm-1]
     freq (   18) =      48.984712 [THz] =    1633.954097 [cm-1]
     freq (   19) =      48.984712 [THz] =    1633.954097 [cm-1]
     freq (   20) =      56.377182 [THz] =    1880.540382 [cm-1]
     freq (   21) =      61.644811 [THz] =    2056.249563 [cm-1]
 **************************************************************************

     Mode symmetry, C_4v (4mm)  point group:

     freq (   1-   2) =        216.9  [cm-1]   --> E    G_5 D_5       
     freq (   3-   3) =        469.5  [cm-1]   --> A_1  G_1 D_1       
     freq (   4-   4) =        897.5  [cm-1]   --> B_2  G_4 D_2'      
     freq (   5-   6) =        952.6  [cm-1]   --> E    G_5 D_5       
     freq (   7-   7) =       1186.1  [cm-1]   --> B_1  G_3 D_2       
     freq (   8-   8) =       1208.5  [cm-1]   --> A_1  G_1 D_1       
     freq (   9-  10) =       1230.2  [cm-1]   --> E    G_5 D_5       
     freq (  11-  12) =       1353.1  [cm-1]   --> E    G_5 D_5       
     freq (  13-  14) =       1431.4  [cm-1]   --> E    G_5 D_5       
     freq (  15-  15) =       1471.2  [cm-1]   --> B_1  G_3 D_2       
     freq (  16-  16) =       1477.1  [cm-1]   --> A_2  G_2 D_1'      
     freq (  17-  17) =       1488.7  [cm-1]   --> A_1  G_1 D_1       
     freq (  18-  19) =       1634.0  [cm-1]   --> E    G_5 D_5       
     freq (  20-  20) =       1880.5  [cm-1]   --> B_1  G_3 D_2       
     freq (  21-  21) =       2056.2  [cm-1]   --> A_1  G_1 D_1       
     electron-phonon interaction  ...

     Gaussian Broadening:   0.005 Ry, ngauss=   0
     DOS =  1.900675 states/spin/Ry/Unit Cell at Ef= 17.155196 eV
     lambda(    1)=  0.1319   gamma=   10.13 GHz
     lambda(    2)=  0.1347   gamma=   10.34 GHz
     lambda(    3)=  0.1033   gamma=   37.15 GHz
     lambda(    4)=  0.6139   gamma=  806.67 GHz
     lambda(    5)=  0.0706   gamma=  104.54 GHz
     lambda(    6)=  0.0636   gamma=   94.21 GHz
     lambda(    7)=  0.2062   gamma=  473.12 GHz
     lambda(    8)=  0.6334   gamma= 1509.17 GHz
     lambda(    9)=  0.1027   gamma=  253.61 GHz
     lambda(   10)=  0.1037   gamma=  255.91 GHz
     lambda(   11)=  0.0295   gamma=   88.14 GHz
     lambda(   12)=  0.0297   gamma=   88.70 GHz
     lambda(   13)=  0.0036   gamma=   12.03 GHz
     lambda(   14)=  0.0032   gamma=   10.81 GHz
     lambda(   15)=  0.0057   gamma=   20.17 GHz
     lambda(   16)=  0.0009   gamma=    3.29 GHz
     lambda(   17)=  0.0260   gamma=   94.15 GHz
     lambda(   18)=  0.0022   gamma=    9.76 GHz
     lambda(   19)=  0.0025   gamma=   10.68 GHz
     lambda(   20)=  0.0058   gamma=   33.47 GHz
     lambda(   21)=  0.0459   gamma=  316.77 GHz
     Gaussian Broadening:   0.010 Ry, ngauss=   0
     DOS =  2.130656 states/spin/Ry/Unit Cell at Ef= 17.149400 eV
     lambda(    1)=  0.1808   gamma=   15.56 GHz
     lambda(    2)=  0.1869   gamma=   16.08 GHz
     lambda(    3)=  0.0952   gamma=   38.36 GHz
     lambda(    4)=  0.8355   gamma= 1230.79 GHz
     lambda(    5)=  0.0640   gamma=  106.16 GHz
     lambda(    6)=  0.0602   gamma=   99.82 GHz
     lambda(    7)=  0.2882   gamma=  741.31 GHz
     lambda(    8)=  0.4257   gamma= 1136.99 GHz
     lambda(    9)=  0.1067   gamma=  295.32 GHz
     lambda(   10)=  0.1074   gamma=  297.23 GHz
     lambda(   11)=  0.0276   gamma=   92.56 GHz
     lambda(   12)=  0.0271   gamma=   90.78 GHz
     lambda(   13)=  0.0071   gamma=   26.70 GHz
     lambda(   14)=  0.0065   gamma=   24.33 GHz
     lambda(   15)=  0.0061   gamma=   24.03 GHz
     lambda(   16)=  0.0022   gamma=    8.65 GHz
     lambda(   17)=  0.0382   gamma=  155.01 GHz
     lambda(   18)=  0.0034   gamma=   16.78 GHz
     lambda(   19)=  0.0036   gamma=   17.65 GHz
     lambda(   20)=  0.0106   gamma=   68.77 GHz
     lambda(   21)=  0.0637   gamma=  492.68 GHz
     Gaussian Broadening:   0.015 Ry, ngauss=   0
     DOS =  2.235086 states/spin/Ry/Unit Cell at Ef= 17.146382 eV
     lambda(    1)=  0.2215   gamma=   20.00 GHz
     lambda(    2)=  0.2253   gamma=   20.34 GHz
     lambda(    3)=  0.0841   gamma=   35.57 GHz
     lambda(    4)=  0.9906   gamma= 1530.78 GHz
     lambda(    5)=  0.0715   gamma=  124.38 GHz
     lambda(    6)=  0.0702   gamma=  122.26 GHz
     lambda(    7)=  0.2871   gamma=  774.67 GHz
     lambda(    8)=  0.3061   gamma=  857.71 GHz
     lambda(    9)=  0.1193   gamma=  346.47 GHz
     lambda(   10)=  0.1197   gamma=  347.43 GHz
     lambda(   11)=  0.0276   gamma=   96.93 GHz
     lambda(   12)=  0.0273   gamma=   95.90 GHz
     lambda(   13)=  0.0094   gamma=   36.96 GHz
     lambda(   14)=  0.0089   gamma=   34.84 GHz
     lambda(   15)=  0.0054   gamma=   22.27 GHz
     lambda(   16)=  0.0034   gamma=   14.07 GHz
     lambda(   17)=  0.0451   gamma=  191.66 GHz
     lambda(   18)=  0.0042   gamma=   21.32 GHz
     lambda(   19)=  0.0043   gamma=   21.79 GHz
     lambda(   20)=  0.0112   gamma=   76.32 GHz
     lambda(   21)=  0.0598   gamma=  485.33 GHz
     Gaussian Broadening:   0.020 Ry, ngauss=   0
     DOS =  2.290454 states/spin/Ry/Unit Cell at Ef= 17.145317 eV
     lambda(    1)=  0.2439   gamma=   22.56 GHz
     lambda(    2)=  0.2464   gamma=   22.80 GHz
     lambda(    3)=  0.0792   gamma=   34.32 GHz
     lambda(    4)=  1.0510   gamma= 1664.34 GHz
     lambda(    5)=  0.0773   gamma=  137.85 GHz
     lambda(    6)=  0.0771   gamma=  137.51 GHz
     lambda(    7)=  0.2874   gamma=  794.71 GHz
     lambda(    8)=  0.2401   gamma=  689.48 GHz
     lambda(    9)=  0.1267   gamma=  377.11 GHz
     lambda(   10)=  0.1269   gamma=  377.70 GHz
     lambda(   11)=  0.0274   gamma=   98.79 GHz
     lambda(   12)=  0.0272   gamma=   97.89 GHz
     lambda(   13)=  0.0108   gamma=   43.32 GHz
     lambda(   14)=  0.0103   gamma=   41.46 GHz
     lambda(   15)=  0.0049   gamma=   20.71 GHz
     lambda(   16)=  0.0041   gamma=   17.49 GHz
     lambda(   17)=  0.0482   gamma=  210.19 GHz
     lambda(   18)=  0.0044   gamma=   23.33 GHz
     lambda(   19)=  0.0045   gamma=   23.65 GHz
     lambda(   20)=  0.0111   gamma=   77.26 GHz
     lambda(   21)=  0.0532   gamma=  442.25 GHz
     Gaussian Broadening:   0.025 Ry, ngauss=   0
     DOS =  2.332190 states/spin/Ry/Unit Cell at Ef= 17.144758 eV
     lambda(    1)=  0.2559   gamma=   24.11 GHz
     lambda(    2)=  0.2578   gamma=   24.28 GHz
     lambda(    3)=  0.0773   gamma=   34.10 GHz
     lambda(    4)=  1.0571   gamma= 1704.36 GHz
     lambda(    5)=  0.0803   gamma=  145.82 GHz
     lambda(    6)=  0.0806   gamma=  146.30 GHz
     lambda(    7)=  0.2908   gamma=  818.92 GHz
     lambda(    8)=  0.2045   gamma=  597.75 GHz
     lambda(    9)=  0.1307   gamma=  396.06 GHz
     lambda(   10)=  0.1309   gamma=  396.52 GHz
     lambda(   11)=  0.0273   gamma=  100.22 GHz
     lambda(   12)=  0.0271   gamma=   99.19 GHz
     lambda(   13)=  0.0115   gamma=   47.14 GHz
     lambda(   14)=  0.0111   gamma=   45.40 GHz
     lambda(   15)=  0.0046   gamma=   20.01 GHz
     lambda(   16)=  0.0044   gamma=   19.32 GHz
     lambda(   17)=  0.0491   gamma=  217.80 GHz
     lambda(   18)=  0.0046   gamma=   24.53 GHz
     lambda(   19)=  0.0046   gamma=   24.76 GHz
     lambda(   20)=  0.0109   gamma=   77.37 GHz
     lambda(   21)=  0.0488   gamma=  413.35 GHz
     Gaussian Broadening:   0.030 Ry, ngauss=   0
     DOS =  2.360595 states/spin/Ry/Unit Cell at Ef= 17.144134 eV
     lambda(    1)=  0.2619   gamma=   24.97 GHz
     lambda(    2)=  0.2632   gamma=   25.09 GHz
     lambda(    3)=  0.0762   gamma=   34.02 GHz
     lambda(    4)=  1.0376   gamma= 1693.34 GHz
     lambda(    5)=  0.0816   gamma=  149.96 GHz
     lambda(    6)=  0.0821   gamma=  150.92 GHz
     lambda(    7)=  0.2922   gamma=  832.67 GHz
     lambda(    8)=  0.1852   gamma=  547.90 GHz
     lambda(    9)=  0.1325   gamma=  406.36 GHz
     lambda(   10)=  0.1326   gamma=  406.72 GHz
     lambda(   11)=  0.0272   gamma=  100.87 GHz
     lambda(   12)=  0.0269   gamma=   99.73 GHz
     lambda(   13)=  0.0119   gamma=   49.31 GHz
     lambda(   14)=  0.0115   gamma=   47.63 GHz
     lambda(   15)=  0.0045   gamma=   19.57 GHz
     lambda(   16)=  0.0045   gamma=   20.07 GHz
     lambda(   17)=  0.0487   gamma=  218.86 GHz
     lambda(   18)=  0.0047   gamma=   25.43 GHz
     lambda(   19)=  0.0047   gamma=   25.57 GHz
     lambda(   20)=  0.0107   gamma=   76.97 GHz
     lambda(   21)=  0.0461   gamma=  394.73 GHz
     Gaussian Broadening:   0.035 Ry, ngauss=   0
     DOS =  2.381114 states/spin/Ry/Unit Cell at Ef= 17.143351 eV
     lambda(    1)=  0.2646   gamma=   25.45 GHz
     lambda(    2)=  0.2654   gamma=   25.53 GHz
     lambda(    3)=  0.0753   gamma=   33.90 GHz
     lambda(    4)=  1.0074   gamma= 1658.32 GHz
     lambda(    5)=  0.0822   gamma=  152.43 GHz
     lambda(    6)=  0.0829   gamma=  153.71 GHz
     lambda(    7)=  0.2912   gamma=  837.28 GHz
     lambda(    8)=  0.1748   gamma=  521.72 GHz
     lambda(    9)=  0.1332   gamma=  411.89 GHz
     lambda(   10)=  0.1332   gamma=  412.14 GHz
     lambda(   11)=  0.0270   gamma=  100.84 GHz
     lambda(   12)=  0.0266   gamma=   99.69 GHz
     lambda(   13)=  0.0121   gamma=   50.66 GHz
     lambda(   14)=  0.0117   gamma=   49.05 GHz
     lambda(   15)=  0.0043   gamma=   19.19 GHz
     lambda(   16)=  0.0045   gamma=   20.23 GHz
     lambda(   17)=  0.0478   gamma=  216.68 GHz
     lambda(   18)=  0.0048   gamma=   26.25 GHz
     lambda(   19)=  0.0048   gamma=   26.33 GHz
     lambda(   20)=  0.0106   gamma=   76.43 GHz
     lambda(   21)=  0.0443   gamma=  382.88 GHz
     Gaussian Broadening:   0.040 Ry, ngauss=   0
     DOS =  2.398900 states/spin/Ry/Unit Cell at Ef= 17.142416 eV
     lambda(    1)=  0.2662   gamma=   25.79 GHz
     lambda(    2)=  0.2665   gamma=   25.82 GHz
     lambda(    3)=  0.0744   gamma=   33.77 GHz
     lambda(    4)=  0.9735   gamma= 1614.56 GHz
     lambda(    5)=  0.0829   gamma=  154.85 GHz
     lambda(    6)=  0.0837   gamma=  156.35 GHz
     lambda(    7)=  0.2891   gamma=  837.40 GHz
     lambda(    8)=  0.1692   gamma=  508.84 GHz
     lambda(    9)=  0.1333   gamma=  415.52 GHz
     lambda(   10)=  0.1334   gamma=  415.65 GHz
     lambda(   11)=  0.0267   gamma=  100.56 GHz
     lambda(   12)=  0.0264   gamma=   99.46 GHz
     lambda(   13)=  0.0123   gamma=   51.82 GHz
     lambda(   14)=  0.0119   gamma=   50.27 GHz
     lambda(   15)=  0.0042   gamma=   18.84 GHz
     lambda(   16)=  0.0045   gamma=   20.11 GHz
     lambda(   17)=  0.0467   gamma=  213.23 GHz
     lambda(   18)=  0.0049   gamma=   27.16 GHz
     lambda(   19)=  0.0049   gamma=   27.18 GHz
     lambda(   20)=  0.0104   gamma=   76.03 GHz
     lambda(   21)=  0.0432   gamma=  376.16 GHz
     Gaussian Broadening:   0.045 Ry, ngauss=   0
     DOS =  2.416850 states/spin/Ry/Unit Cell at Ef= 17.141341 eV
     lambda(    1)=  0.2675   gamma=   26.11 GHz
     lambda(    2)=  0.2674   gamma=   26.10 GHz
     lambda(    3)=  0.0736   gamma=   33.66 GHz
     lambda(    4)=  0.9392   gamma= 1569.33 GHz
     lambda(    5)=  0.0840   gamma=  158.15 GHz
     lambda(    6)=  0.0849   gamma=  159.79 GHz
     lambda(    7)=  0.2865   gamma=  836.01 GHz
     lambda(    8)=  0.1660   gamma=  502.92 GHz
     lambda(    9)=  0.1334   gamma=  418.86 GHz
     lambda(   10)=  0.1334   gamma=  418.87 GHz
     lambda(   11)=  0.0264   gamma=  100.35 GHz
     lambda(   12)=  0.0262   gamma=   99.34 GHz
     lambda(   13)=  0.0125   gamma=   53.13 GHz
     lambda(   14)=  0.0121   gamma=   51.63 GHz
     lambda(   15)=  0.0041   gamma=   18.52 GHz
     lambda(   16)=  0.0044   gamma=   19.91 GHz
     lambda(   17)=  0.0456   gamma=  209.49 GHz
     lambda(   18)=  0.0051   gamma=   28.24 GHz
     lambda(   19)=  0.0051   gamma=   28.21 GHz
     lambda(   20)=  0.0103   gamma=   75.86 GHz
     lambda(   21)=  0.0426   gamma=  373.63 GHz
     Gaussian Broadening:   0.050 Ry, ngauss=   0
     DOS =  2.436152 states/spin/Ry/Unit Cell at Ef= 17.140123 eV
     lambda(    1)=  0.2691   gamma=   26.48 GHz
     lambda(    2)=  0.2687   gamma=   26.44 GHz
     lambda(    3)=  0.0729   gamma=   33.59 GHz
     lambda(    4)=  0.9059   gamma= 1525.68 GHz
     lambda(    5)=  0.0858   gamma=  162.72 GHz
     lambda(    6)=  0.0867   gamma=  164.46 GHz
     lambda(    7)=  0.2836   gamma=  834.24 GHz
     lambda(    8)=  0.1639   gamma=  500.45 GHz
     lambda(    9)=  0.1335   gamma=  422.62 GHz
     lambda(   10)=  0.1335   gamma=  422.51 GHz
     lambda(   11)=  0.0262   gamma=  100.35 GHz
     lambda(   12)=  0.0260   gamma=   99.45 GHz
     lambda(   13)=  0.0128   gamma=   54.78 GHz
     lambda(   14)=  0.0124   gamma=   53.31 GHz
     lambda(   15)=  0.0040   gamma=   18.24 GHz
     lambda(   16)=  0.0043   gamma=   19.71 GHz
     lambda(   17)=  0.0444   gamma=  205.85 GHz
     lambda(   18)=  0.0053   gamma=   29.58 GHz
     lambda(   19)=  0.0053   gamma=   29.49 GHz
     lambda(   20)=  0.0103   gamma=   75.94 GHz
     lambda(   21)=  0.0424   gamma=  374.43 GHz
 
 
     Number of q in the star =    6
     List of q in the star:
          1   0.000000000   0.000000000   0.433012700
          2   0.433012700  -0.000000000   0.000000000
          3  -0.433012700  -0.000000000  -0.000000000
          4  -0.000000000   0.433012700   0.000000000
          5  -0.000000000  -0.433012700  -0.000000000
          6  -0.000000000  -0.000000000  -0.433012700
 
     init_run     :      0.06s CPU      0.12s WALL (       1 calls)
     electrons    :      8.09s CPU      8.97s WALL (       1 calls)

     Called by init_run:
     wfcinit      :      0.00s CPU      0.02s WALL (       1 calls)
     potinit      :      0.01s CPU      0.02s WALL (       1 calls)
     hinit0       :      0.03s CPU      0.03s WALL (       1 calls)

     Called by electrons:
     c_bands      :      8.07s CPU      8.95s WALL (       1 calls)
     v_of_rho     :      0.01s CPU      0.04s WALL (       2 calls)
     newd         :      0.00s CPU      0.03s WALL (       2 calls)

     Called by c_bands:
     init_us_2    :      0.65s CPU      0.72s WALL (   24138 calls)
     cegterg      :      4.84s CPU      5.22s WALL (     326 calls)

     Called by *egterg:
     cdiaghg      :      1.64s CPU      1.78s WALL (    4995 calls)
     h_psi        :    321.43s CPU    382.24s WALL (  313186 calls)
     s_psi        :      6.63s CPU      7.46s WALL (  646323 calls)
     g_psi        :      0.01s CPU      0.02s WALL (    4671 calls)

     Called by h_psi:
     h_psi:calbec :      5.96s CPU      6.65s WALL (  313186 calls)
     vloc_psi     :    309.67s CPU    369.08s WALL (  313186 calls)
     add_vuspsi   :      3.14s CPU      3.53s WALL (  313186 calls)

     General routines
     calbec       :     34.08s CPU     36.17s WALL (  690873 calls)
     fft          :      0.43s CPU      0.72s WALL (    3207 calls)
     ffts         :      0.32s CPU      0.37s WALL (    4073 calls)
     fftw         :    552.32s CPU    669.55s WALL ( 4671581 calls)
     interpolate  :      0.21s CPU      0.24s WALL (     335 calls)
     davcio       :      4.03s CPU    154.15s WALL (  123382 calls)
 
     Parallel routines
 
     PHONON       :  16m 9.46s CPU  21m33.09s WALL

     INITIALIZATION: 
     phq_setup    :      0.01s CPU      0.03s WALL (       1 calls)
     phq_init     :      7.81s CPU      9.09s WALL (       1 calls)
 
     phq_init     :      7.81s CPU      9.09s WALL (       1 calls)
     set_drhoc    :      0.04s CPU      0.04s WALL (       3 calls)
     init_vloc    :      0.00s CPU      0.01s WALL (       2 calls)
     init_us_1    :      0.05s CPU      0.09s WALL (       2 calls)
     newd         :      0.00s CPU      0.03s WALL (       2 calls)
     dvanqq       :      0.16s CPU      0.16s WALL (       1 calls)
     drho         :      4.04s CPU      4.72s WALL (       1 calls)
 
     DYNAMICAL MATRIX:
     dynmat0      :      1.57s CPU      1.75s WALL (       1 calls)
     phqscf       :    921.59s CPU   1240.24s WALL (       1 calls)
     dynmatrix    :      0.09s CPU      0.11s WALL (       1 calls)
 
     phqscf       :    921.59s CPU   1240.24s WALL (       1 calls)
     solve_linter :    902.16s CPU   1214.20s WALL (      15 calls)
     drhodv       :     19.41s CPU     24.03s WALL (      15 calls)
 
     dynmat0      :      1.57s CPU      1.75s WALL (       1 calls)
     dynmat_us    :      1.53s CPU      1.70s WALL (       1 calls)
     d2ionq       :      0.01s CPU      0.01s WALL (       1 calls)
     dynmatcc     :      0.03s CPU      0.03s WALL (       1 calls)
 
     dynmat_us    :      1.53s CPU      1.70s WALL (       1 calls)
     addusdynmat  :      0.00s CPU      0.00s WALL (       1 calls)
 
     phqscf       :    921.59s CPU   1240.24s WALL (       1 calls)
     solve_linter :    902.16s CPU   1214.20s WALL (      15 calls)
 
     solve_linter :    902.16s CPU   1214.20s WALL (      15 calls)
     dvqpsi_us    :      5.06s CPU      5.51s WALL (    3402 calls)
     ortho        :     20.33s CPU     21.20s WALL (   25272 calls)
     cgsolve      :    342.74s CPU    406.25s WALL (   25272 calls)
     incdrhoscf   :    118.10s CPU    145.81s WALL (   25272 calls)
     addusddens   :      1.55s CPU      3.56s WALL (     128 calls)
     vpsifft      :    137.35s CPU    169.08s WALL (   25272 calls)
     dv_of_drho   :      0.34s CPU      0.40s WALL (     156 calls)
     mix_pot      :     11.66s CPU     36.14s WALL (     113 calls)
     psymdvscf    :      7.26s CPU      7.54s WALL (     113 calls)
     newdq        :      1.63s CPU      1.64s WALL (     113 calls)
     adddvscf     :      0.83s CPU      0.93s WALL (   25272 calls)
     drhodvus     :      1.53s CPU      6.20s WALL (      15 calls)
 
     dvqpsi_us    :      5.06s CPU      5.51s WALL (    3402 calls)
     dvqpsi_us_on :      1.95s CPU      2.07s WALL (    3402 calls)
 
     cgsolve      :    342.74s CPU    406.25s WALL (   25272 calls)
     ch_psi       :    338.59s CPU    401.55s WALL (  307865 calls)
 
     ch_psi       :    338.59s CPU    401.55s WALL (  307865 calls)
     h_psi        :    321.43s CPU    382.24s WALL (  313186 calls)
     last         :     13.48s CPU     15.11s WALL (  307865 calls)
 
     h_psi        :    321.43s CPU    382.24s WALL (  313186 calls)
     add_vuspsi   :      3.14s CPU      3.53s WALL (  313186 calls)
 
     incdrhoscf   :    118.10s CPU    145.81s WALL (   25272 calls)
     addusdbec    :      0.85s CPU      0.94s WALL (   28674 calls)
 
     drhodvus     :      1.53s CPU      6.20s WALL (      15 calls)
 
      Electron-phonon coupling
     elphel       :     38.65s CPU     55.84s WALL (      15 calls)
     elphsum      :     31.17s CPU     31.58s WALL (       1 calls)
 
      General routines
     calbec       :     34.08s CPU     36.17s WALL (  690873 calls)
     fft          :      0.43s CPU      0.72s WALL (    3207 calls)
     ffts         :      0.32s CPU      0.37s WALL (    4073 calls)
     fftw         :    552.32s CPU    669.55s WALL ( 4671581 calls)
     davcio       :      4.03s CPU    154.15s WALL (  123382 calls)
     write_rec    :      0.10s CPU     16.31s WALL (     128 calls)
 
 
     PHONON       :  16m 9.46s CPU  21m33.09s WALL

 
   This run was terminated on:  16: 4:58  21Jul2022            

=------------------------------------------------------------------------------=
   JOB DONE.
=------------------------------------------------------------------------------=
