
     Program PHONON v.6.8 starts on 22Jul2022 at  2:51:53 

     This program is part of the open-source Quantum ESPRESSO suite
     for quantum simulation of materials; please cite
         "P. Giannozzi et al., J. Phys.:Condens. Matter 21 395502 (2009);
         "P. Giannozzi et al., J. Phys.:Condens. Matter 29 465901 (2017);
         "P. Giannozzi et al., J. Chem. Phys. 152 154105 (2020);
          URL http://www.quantum-espresso.org", 
     in publications or presentations arising from this work. More details at
     http://www.quantum-espresso.org/quote

     Parallel version (MPI), running on    48 processors

     MPI processes distributed on     1 nodes
     K-points division:     npool     =       4
     R & G space division:  proc/nbgrp/npool/nimage =      12
     188664 MiB available memory on the printing compute node when the environment starts
 
     Waiting for input...
     Reading input from standard input

     Reading xml data from directory:

     ./tmp/Ca1H6.save/

     IMPORTANT: XC functional enforced from input :
     Exchange-correlation= PBE
                           (   1   4   3   4   0   0   0)
     Any further DFT definition will be discarded
     Please, verify this is what you really want

 
     Parallelization info
     --------------------
     sticks:   dense  smooth     PW     G-vecs:    dense   smooth      PW
     Min         139      46     17                 3602      698     155
     Max         140      47     18                 3604      701     157
     Sum        1669     557    205                43227     8391    1865
 
     Using Slab Decomposition
 
     Reading collected, re-writing distributed wavefunctions

     Saving dvscf to file. Distribute only q points, not irreducible represetations.

     Calculation of q =    0.4330127   0.3247595   0.1082532

     Subspace diagonalization in iterative solution of the eigenvalue problem:
     a serial algorithm will be used

 
     Parallelization info
     --------------------
     sticks:   dense  smooth     PW     G-vecs:    dense   smooth      PW
     Min         139      46     17                 3602      698     155
     Max         140      47     18                 3604      701     157
     Sum        1669     557    205                43227     8391    1865
 
     Using Slab Decomposition
 

     Title: 
     Electron-phonon coefficients for Ca1H6                                     


     bravais-lattice index     =            0
     lattice parameter (alat)  =       5.5613  a.u.
     unit-cell volume          =     132.4087 (a.u.)^3
     number of atoms/cell      =            7
     number of atomic types    =            2
     number of electrons       =        16.00
     number of Kohn-Sham states=           12
     kinetic-energy cutoff     =      60.0000  Ry
     charge density cutoff     =     720.0000  Ry
     Exchange-correlation= PBE
                           (   1   4   3   4   0   0   0)

     celldm(1)=   5.561340  celldm(2)=   0.000000  celldm(3)=   0.000000
     celldm(4)=   0.000000  celldm(5)=   0.000000  celldm(6)=   0.000000

     crystal axes: (cart. coord. in units of alat)
               a(1) = (  -0.577350   0.577350   0.577350 )  
               a(2) = (   0.577350  -0.577350   0.577350 )  
               a(3) = (   0.577350   0.577350  -0.577350 )  

     reciprocal axes: (cart. coord. in units 2 pi/alat)
               b(1) = ( -0.000000  0.866025  0.866025 )  
               b(2) = (  0.866025 -0.000000  0.866025 )  
               b(3) = (  0.866025  0.866025  0.000000 )  


     PseudoPot. # 1 for Ca read from file:
     /work/home/mayuan/code/my_script/scripts_tests/out2/200.0/pp/ca_pbe_v1.uspp.F.UPF
     MD5 check sum: 403a4c14b9e4d4dfdc3024c9a3812218
     Pseudo is Ultrasoft + core correction, Zval = 10.0
     Generated by new atomic code, or converted to UPF format
     Using radial grid of  845 points,  6 beta functions with: 
                l(1) =   0
                l(2) =   0
                l(3) =   1
                l(4) =   1
                l(5) =   2
                l(6) =   2
     Q(r) pseudized with  8 coefficients,  rinner =    1.500   1.500   1.500
                                                       1.500   1.500

     PseudoPot. # 2 for H  read from file:
     /work/home/mayuan/code/my_script/scripts_tests/out2/200.0/pp/h_pbe_v1.uspp.F.UPF
     MD5 check sum: 3408e3ff4ec8b0a4e358431e7e038a48
     Pseudo is Ultrasoft, Zval =  1.0
     Generated by new atomic code, or converted to UPF format
     Using radial grid of  615 points,  2 beta functions with: 
                l(1) =   0
                l(2) =   0
     Q(r) pseudized with  8 coefficients,  rinner =    0.700

     atomic species   valence    mass     pseudopotential
        Ca            10.00    40.07800     Ca( 1.00)
        H              1.00     1.00794     H ( 1.00)

     48 Sym. Ops., with inversion, found



   Cartesian axes

     site n.     atom                  positions (alat units)
         1           Ca  tau(   1) = (   0.0000000   0.0000000   0.0000000  )
         2           H   tau(   2) = (   0.2886751   0.0000000   0.5773503  )
         3           H   tau(   3) = (   0.2886751   0.5773503   0.0000000  )
         4           H   tau(   4) = (   0.5773503   0.2886751   0.0000000  )
         5           H   tau(   5) = (   0.0000000   0.2886751   0.5773503  )
         6           H   tau(   6) = (   0.0000000   0.5773503   0.2886751  )
         7           H   tau(   7) = (   0.5773503   0.0000000   0.2886751  )

     number of k points=  8192  Methfessel-Paxton smearing, width (Ry)=  0.0200

     Number of k-points >= 100: set verbosity='high' to print them.

     Dense  grid:    43227 G-vectors     FFT dimensions: (  48,  48,  48)

     Smooth grid:     8391 G-vectors     FFT dimensions: (  27,  27,  27)

     Estimated max dynamical RAM per process >       8.36 MB

     Estimated total dynamical RAM >     401.25 MB

     The potential is recalculated from file :
     ./tmp/_ph0/Ca1H6.save/charge-density

     Starting wfcs are   16 atomic wfcs

     Band Structure Calculation
     Davidson diagonalization with overlap

     ethr =  6.25E-11,  avg # of iterations = 15.1

     total cpu time spent up to now is       68.2 secs

     End of band structure calculation

     Number of k-points >= 100: set verbosity='high' to print the bands.

     the Fermi energy is    17.0980 ev

     Writing output data file ./tmp/_ph0/Ca1H6.save/

     Electron-phonon coefficients for Ca1H6                                     

     bravais-lattice index     =            0
     lattice parameter (alat)  =       5.5613  a.u.
     unit-cell volume          =     132.4087 (a.u.)^3
     number of atoms/cell      =            7
     number of atomic types    =            2
     kinetic-energy cut-off    =      60.0000  Ry
     charge density cut-off    =     720.0000  Ry
     convergence threshold     =      1.0E-16
     beta                      =       0.7000
     number of iterations used =            4
     Exchange-correlation= PBE
                           (   1   4   3   4   0   0   0)


     celldm(1)=    5.56134  celldm(2)=    0.00000  celldm(3)=    0.00000
     celldm(4)=    0.00000  celldm(5)=    0.00000  celldm(6)=    0.00000

     crystal axes: (cart. coord. in units of alat)
               a(1) = ( -0.5774  0.5774  0.5774 )  
               a(2) = (  0.5774 -0.5774  0.5774 )  
               a(3) = (  0.5774  0.5774 -0.5774 )  

     reciprocal axes: (cart. coord. in units 2 pi/alat)
               b(1) = ( -0.0000  0.8660  0.8660 )  
               b(2) = (  0.8660 -0.0000  0.8660 )  
               b(3) = (  0.8660  0.8660  0.0000 )  


     Atoms inside the unit cell: 

     Cartesian axes

     site n.  atom      mass           positions (alat units)
        1     Ca  40.0780   tau(    1) = (    0.00000    0.00000    0.00000  )
        2     H    1.0079   tau(    2) = (    0.28868    0.00000    0.57735  )
        3     H    1.0079   tau(    3) = (    0.28868    0.57735    0.00000  )
        4     H    1.0079   tau(    4) = (    0.57735    0.28868    0.00000  )
        5     H    1.0079   tau(    5) = (    0.00000    0.28868    0.57735  )
        6     H    1.0079   tau(    6) = (    0.00000    0.57735    0.28868  )
        7     H    1.0079   tau(    7) = (    0.57735    0.00000    0.28868  )

     Computing dynamical matrix for 
                    q = (   0.4330127   0.3247595   0.1082532 )
 
     No symmetry!

     G cutoff =  564.0682  (   3604 G-vectors)     FFT grid: ( 48, 48, 48)
     G cutoff =  188.0227  (    699 G-vectors)  smooth grid: ( 27, 27, 27)

     number of k points=  8192  Methfessel-Paxton smearing, width (Ry)=  0.0200

     PseudoPot. # 1 for Ca read from file:
     /work/home/mayuan/code/my_script/scripts_tests/out2/200.0/pp/ca_pbe_v1.uspp.F.UPF
     MD5 check sum: 403a4c14b9e4d4dfdc3024c9a3812218
     Pseudo is Ultrasoft + core correction, Zval = 10.0
     Generated by new atomic code, or converted to UPF format
     Using radial grid of  845 points,  6 beta functions with: 
                l(1) =   0
                l(2) =   0
                l(3) =   1
                l(4) =   1
                l(5) =   2
                l(6) =   2
     Q(r) pseudized with  8 coefficients,  rinner =    1.500   1.500   1.500
                                                       1.500   1.500

     PseudoPot. # 2 for H  read from file:
     /work/home/mayuan/code/my_script/scripts_tests/out2/200.0/pp/h_pbe_v1.uspp.F.UPF
     MD5 check sum: 3408e3ff4ec8b0a4e358431e7e038a48
     Pseudo is Ultrasoft, Zval =  1.0
     Generated by new atomic code, or converted to UPF format
     Using radial grid of  615 points,  2 beta functions with: 
                l(1) =   0
                l(2) =   0
     Q(r) pseudized with  8 coefficients,  rinner =    0.700

     Mode symmetry, C_1 (1)     point group:


     Atomic displacements:
     There are   21 irreducible representations

     Representation     1      1 modes -  To be done

     Representation     2      1 modes -  To be done

     Representation     3      1 modes -  To be done

     Representation     4      1 modes -  To be done

     Representation     5      1 modes -  To be done

     Representation     6      1 modes -  To be done

     Representation     7      1 modes -  To be done

     Representation     8      1 modes -  To be done

     Representation     9      1 modes -  To be done

     Representation    10      1 modes -  To be done

     Representation    11      1 modes -  To be done

     Representation    12      1 modes -  To be done

     Representation    13      1 modes -  To be done

     Representation    14      1 modes -  To be done

     Representation    15      1 modes -  To be done

     Representation    16      1 modes -  To be done

     Representation    17      1 modes -  To be done

     Representation    18      1 modes -  To be done

     Representation    19      1 modes -  To be done

     Representation    20      1 modes -  To be done

     Representation    21      1 modes -  To be done



     Alpha used in Ewald sum =   2.8000
     PHONON       :   1m52.74s CPU   2m 8.49s WALL



     Representation #   1 mode #   1

     Self-consistent Calculation

      iter #   1 total cpu time :   157.5 secs   av.it.:   4.2
      thresh= 1.000E-02 alpha_mix =  0.700 |ddv_scf|^2 =  2.493E-06

      iter #   2 total cpu time :   247.1 secs   av.it.:   9.6
      thresh= 1.579E-04 alpha_mix =  0.700 |ddv_scf|^2 =  9.129E-06

      iter #   3 total cpu time :   326.1 secs   av.it.:   8.4
      thresh= 3.021E-04 alpha_mix =  0.700 |ddv_scf|^2 =  4.755E-08

      iter #   4 total cpu time :   405.9 secs   av.it.:   9.1
      thresh= 2.181E-05 alpha_mix =  0.700 |ddv_scf|^2 =  1.521E-09

      iter #   5 total cpu time :   479.5 secs   av.it.:   9.5
      thresh= 3.899E-06 alpha_mix =  0.700 |ddv_scf|^2 =  6.390E-11

      iter #   6 total cpu time :   552.0 secs   av.it.:   9.8
      thresh= 7.994E-07 alpha_mix =  0.700 |ddv_scf|^2 =  2.435E-12

      iter #   7 total cpu time :   631.9 secs   av.it.:   9.8
      thresh= 1.561E-07 alpha_mix =  0.700 |ddv_scf|^2 =  2.125E-13

      iter #   8 total cpu time :   710.8 secs   av.it.:   9.9
      thresh= 4.610E-08 alpha_mix =  0.700 |ddv_scf|^2 =  6.503E-14

      iter #   9 total cpu time :   794.6 secs   av.it.:   9.3
      thresh= 2.550E-08 alpha_mix =  0.700 |ddv_scf|^2 =  9.730E-14

      iter #  10 total cpu time :   872.6 secs   av.it.:   8.7
      thresh= 3.119E-08 alpha_mix =  0.700 |ddv_scf|^2 =  3.441E-15

      iter #  11 total cpu time :   954.0 secs   av.it.:   9.2
      thresh= 5.866E-09 alpha_mix =  0.700 |ddv_scf|^2 =  4.428E-16

      iter #  12 total cpu time :  1033.8 secs   av.it.:   9.6
      thresh= 2.104E-09 alpha_mix =  0.700 |ddv_scf|^2 =  2.142E-17

     End of self-consistent calculation

     Convergence has been achieved 


     Representation #   2 mode #   2

     Self-consistent Calculation

      iter #   1 total cpu time :  1090.9 secs   av.it.:   4.1
      thresh= 1.000E-02 alpha_mix =  0.700 |ddv_scf|^2 =  1.251E-06

      iter #   2 total cpu time :  1152.6 secs   av.it.:   9.7
      thresh= 1.118E-04 alpha_mix =  0.700 |ddv_scf|^2 =  4.435E-06

      iter #   3 total cpu time :  1213.0 secs   av.it.:   8.4
      thresh= 2.106E-04 alpha_mix =  0.700 |ddv_scf|^2 =  2.835E-08

      iter #   4 total cpu time :  1279.7 secs   av.it.:   9.1
      thresh= 1.684E-05 alpha_mix =  0.700 |ddv_scf|^2 =  2.122E-09

      iter #   5 total cpu time :  1349.9 secs   av.it.:   9.2
      thresh= 4.606E-06 alpha_mix =  0.700 |ddv_scf|^2 =  1.018E-10

      iter #   6 total cpu time :  1418.4 secs   av.it.:   9.7
      thresh= 1.009E-06 alpha_mix =  0.700 |ddv_scf|^2 =  3.347E-12

      iter #   7 total cpu time :  1494.5 secs   av.it.:   9.8
      thresh= 1.829E-07 alpha_mix =  0.700 |ddv_scf|^2 =  1.651E-13

      iter #   8 total cpu time :  1576.2 secs   av.it.:   9.9
      thresh= 4.063E-08 alpha_mix =  0.700 |ddv_scf|^2 =  4.970E-14

      iter #   9 total cpu time :  1652.5 secs   av.it.:   9.5
      thresh= 2.229E-08 alpha_mix =  0.700 |ddv_scf|^2 =  9.865E-14

      iter #  10 total cpu time :  1731.6 secs   av.it.:   8.6
      thresh= 3.141E-08 alpha_mix =  0.700 |ddv_scf|^2 =  1.198E-15

      iter #  11 total cpu time :  1816.0 secs   av.it.:   9.5
      thresh= 3.462E-09 alpha_mix =  0.700 |ddv_scf|^2 =  4.525E-16

      iter #  12 total cpu time :  1896.3 secs   av.it.:   9.1
      thresh= 2.127E-09 alpha_mix =  0.700 |ddv_scf|^2 =  2.884E-17

     End of self-consistent calculation

     Convergence has been achieved 


     Representation #   3 mode #   3

     Self-consistent Calculation

      iter #   1 total cpu time :  1949.7 secs   av.it.:   4.1
      thresh= 1.000E-02 alpha_mix =  0.700 |ddv_scf|^2 =  1.286E-06

      iter #   2 total cpu time :  2008.0 secs   av.it.:   9.7
      thresh= 1.134E-04 alpha_mix =  0.700 |ddv_scf|^2 =  4.619E-06

      iter #   3 total cpu time :  2076.6 secs   av.it.:   8.4
      thresh= 2.149E-04 alpha_mix =  0.700 |ddv_scf|^2 =  2.258E-08

      iter #   4 total cpu time :  2144.0 secs   av.it.:   9.3
      thresh= 1.503E-05 alpha_mix =  0.700 |ddv_scf|^2 =  2.239E-09

      iter #   5 total cpu time :  2217.4 secs   av.it.:   9.1
      thresh= 4.732E-06 alpha_mix =  0.700 |ddv_scf|^2 =  9.912E-11

      iter #   6 total cpu time :  2291.7 secs   av.it.:   9.7
      thresh= 9.956E-07 alpha_mix =  0.700 |ddv_scf|^2 =  2.902E-12

      iter #   7 total cpu time :  2369.7 secs   av.it.:   9.9
      thresh= 1.703E-07 alpha_mix =  0.700 |ddv_scf|^2 =  3.217E-13

      iter #   8 total cpu time :  2446.5 secs   av.it.:   9.9
      thresh= 5.672E-08 alpha_mix =  0.700 |ddv_scf|^2 =  7.218E-14

      iter #   9 total cpu time :  2523.5 secs   av.it.:   9.6
      thresh= 2.687E-08 alpha_mix =  0.700 |ddv_scf|^2 =  1.586E-13

      iter #  10 total cpu time :  2604.7 secs   av.it.:   8.6
      thresh= 3.983E-08 alpha_mix =  0.700 |ddv_scf|^2 =  3.122E-15

      iter #  11 total cpu time :  2686.4 secs   av.it.:   9.3
      thresh= 5.587E-09 alpha_mix =  0.700 |ddv_scf|^2 =  5.038E-16

      iter #  12 total cpu time :  2767.4 secs   av.it.:   9.4
      thresh= 2.244E-09 alpha_mix =  0.700 |ddv_scf|^2 =  4.482E-17

     End of self-consistent calculation

     Convergence has been achieved 


     Representation #   4 mode #   4

     Self-consistent Calculation

      iter #   1 total cpu time :  2824.4 secs   av.it.:   3.9
      thresh= 1.000E-02 alpha_mix =  0.700 |ddv_scf|^2 =  5.585E-07

      iter #   2 total cpu time :  2881.3 secs   av.it.:   9.7
      thresh= 7.474E-05 alpha_mix =  0.700 |ddv_scf|^2 =  1.588E-06

      iter #   3 total cpu time :  2944.1 secs   av.it.:   8.5
      thresh= 1.260E-04 alpha_mix =  0.700 |ddv_scf|^2 =  2.718E-08

      iter #   4 total cpu time :  3006.7 secs   av.it.:   9.1
      thresh= 1.649E-05 alpha_mix =  0.700 |ddv_scf|^2 =  2.298E-09

      iter #   5 total cpu time :  3075.1 secs   av.it.:   9.1
      thresh= 4.794E-06 alpha_mix =  0.700 |ddv_scf|^2 =  9.269E-11

      iter #   6 total cpu time :  3142.5 secs   av.it.:   9.6
      thresh= 9.628E-07 alpha_mix =  0.700 |ddv_scf|^2 =  2.115E-12

      iter #   7 total cpu time :  3224.1 secs   av.it.:   9.9
      thresh= 1.454E-07 alpha_mix =  0.700 |ddv_scf|^2 =  2.578E-13

      iter #   8 total cpu time :  3301.3 secs   av.it.:   9.9
      thresh= 5.078E-08 alpha_mix =  0.700 |ddv_scf|^2 =  6.840E-14

      iter #   9 total cpu time :  3376.2 secs   av.it.:   9.3
      thresh= 2.615E-08 alpha_mix =  0.700 |ddv_scf|^2 =  7.255E-14

      iter #  10 total cpu time :  3456.6 secs   av.it.:   8.6
      thresh= 2.694E-08 alpha_mix =  0.700 |ddv_scf|^2 =  3.603E-15

      iter #  11 total cpu time :  3536.1 secs   av.it.:   9.3
      thresh= 6.002E-09 alpha_mix =  0.700 |ddv_scf|^2 =  8.539E-16

      iter #  12 total cpu time :  3617.2 secs   av.it.:   9.3
      thresh= 2.922E-09 alpha_mix =  0.700 |ddv_scf|^2 =  6.610E-17

     End of self-consistent calculation

     Convergence has been achieved 


     Representation #   5 mode #   5

     Self-consistent Calculation

      iter #   1 total cpu time :  3675.6 secs   av.it.:   7.0
      thresh= 1.000E-02 alpha_mix =  0.700 |ddv_scf|^2 =  2.791E-04

      iter #   2 total cpu time :  3731.9 secs   av.it.:   9.5
      thresh= 1.671E-03 alpha_mix =  0.700 |ddv_scf|^2 =  1.088E-03

      iter #   3 total cpu time :  3801.6 secs   av.it.:   8.3
      thresh= 3.298E-03 alpha_mix =  0.700 |ddv_scf|^2 =  4.675E-06

      iter #   4 total cpu time :  3870.2 secs   av.it.:   8.9
      thresh= 2.162E-04 alpha_mix =  0.700 |ddv_scf|^2 =  5.490E-08

      iter #   5 total cpu time :  3937.0 secs   av.it.:   9.5
      thresh= 2.343E-05 alpha_mix =  0.700 |ddv_scf|^2 =  2.004E-09

      iter #   6 total cpu time :  4017.6 secs   av.it.:   9.4
      thresh= 4.477E-06 alpha_mix =  0.700 |ddv_scf|^2 =  1.192E-10

      iter #   7 total cpu time :  4094.4 secs   av.it.:   9.3
      thresh= 1.092E-06 alpha_mix =  0.700 |ddv_scf|^2 =  2.419E-12

      iter #   8 total cpu time :  4172.9 secs   av.it.:  10.0
      thresh= 1.555E-07 alpha_mix =  0.700 |ddv_scf|^2 =  1.832E-13

      iter #   9 total cpu time :  4256.0 secs   av.it.:   9.6
      thresh= 4.280E-08 alpha_mix =  0.700 |ddv_scf|^2 =  1.550E-14

      iter #  10 total cpu time :  4335.2 secs   av.it.:   9.5
      thresh= 1.245E-08 alpha_mix =  0.700 |ddv_scf|^2 =  6.951E-16

      iter #  11 total cpu time :  4421.9 secs   av.it.:   9.9
      thresh= 2.636E-09 alpha_mix =  0.700 |ddv_scf|^2 =  8.345E-16

      iter #  12 total cpu time :  4501.7 secs   av.it.:   9.0
      thresh= 2.889E-09 alpha_mix =  0.700 |ddv_scf|^2 =  1.546E-16

      iter #  13 total cpu time :  4587.8 secs   av.it.:   9.1
      thresh= 1.243E-09 alpha_mix =  0.700 |ddv_scf|^2 =  6.483E-18

     End of self-consistent calculation

     Convergence has been achieved 


     Representation #   6 mode #   6

     Self-consistent Calculation

      iter #   1 total cpu time :  4643.3 secs   av.it.:   4.0
      thresh= 1.000E-02 alpha_mix =  0.700 |ddv_scf|^2 =  8.168E-07

      iter #   2 total cpu time :  4697.6 secs   av.it.:   9.6
      thresh= 9.038E-05 alpha_mix =  0.700 |ddv_scf|^2 =  2.285E-06

      iter #   3 total cpu time :  4755.7 secs   av.it.:   8.5
      thresh= 1.512E-04 alpha_mix =  0.700 |ddv_scf|^2 =  4.188E-08

      iter #   4 total cpu time :  4825.3 secs   av.it.:   8.9
      thresh= 2.046E-05 alpha_mix =  0.700 |ddv_scf|^2 =  2.440E-09

      iter #   5 total cpu time :  4891.6 secs   av.it.:   9.1
      thresh= 4.940E-06 alpha_mix =  0.700 |ddv_scf|^2 =  4.932E-11

      iter #   6 total cpu time :  4956.3 secs   av.it.:   9.9
      thresh= 7.023E-07 alpha_mix =  0.700 |ddv_scf|^2 =  2.130E-12

      iter #   7 total cpu time :  5028.1 secs   av.it.:   9.8
      thresh= 1.460E-07 alpha_mix =  0.700 |ddv_scf|^2 =  1.551E-13

      iter #   8 total cpu time :  5100.1 secs   av.it.:   9.9
      thresh= 3.938E-08 alpha_mix =  0.700 |ddv_scf|^2 =  3.974E-14

      iter #   9 total cpu time :  5179.6 secs   av.it.:   9.7
      thresh= 1.994E-08 alpha_mix =  0.700 |ddv_scf|^2 =  6.320E-14

      iter #  10 total cpu time :  5253.3 secs   av.it.:   8.5
      thresh= 2.514E-08 alpha_mix =  0.700 |ddv_scf|^2 =  3.048E-15

      iter #  11 total cpu time :  5330.9 secs   av.it.:   9.0
      thresh= 5.521E-09 alpha_mix =  0.700 |ddv_scf|^2 =  3.513E-16

      iter #  12 total cpu time :  5406.3 secs   av.it.:   9.6
      thresh= 1.874E-09 alpha_mix =  0.700 |ddv_scf|^2 =  1.468E-17

     End of self-consistent calculation

     Convergence has been achieved 


     Representation #   7 mode #   7

     Self-consistent Calculation

      iter #   1 total cpu time :  5462.3 secs   av.it.:   3.9
      thresh= 1.000E-02 alpha_mix =  0.700 |ddv_scf|^2 =  5.579E-07

      iter #   2 total cpu time :  5521.4 secs   av.it.:   9.8
      thresh= 7.469E-05 alpha_mix =  0.700 |ddv_scf|^2 =  1.552E-06

      iter #   3 total cpu time :  5587.3 secs   av.it.:   8.7
      thresh= 1.246E-04 alpha_mix =  0.700 |ddv_scf|^2 =  3.040E-08

      iter #   4 total cpu time :  5648.4 secs   av.it.:   9.1
      thresh= 1.743E-05 alpha_mix =  0.700 |ddv_scf|^2 =  2.562E-09

      iter #   5 total cpu time :  5722.4 secs   av.it.:   9.1
      thresh= 5.061E-06 alpha_mix =  0.700 |ddv_scf|^2 =  7.311E-11

      iter #   6 total cpu time :  5791.0 secs   av.it.:   9.8
      thresh= 8.550E-07 alpha_mix =  0.700 |ddv_scf|^2 =  2.150E-12

      iter #   7 total cpu time :  5861.1 secs   av.it.:   9.9
      thresh= 1.466E-07 alpha_mix =  0.700 |ddv_scf|^2 =  2.528E-13

      iter #   8 total cpu time :  5930.1 secs   av.it.:   9.9
      thresh= 5.028E-08 alpha_mix =  0.700 |ddv_scf|^2 =  5.318E-14

      iter #   9 total cpu time :  6009.3 secs   av.it.:   9.6
      thresh= 2.306E-08 alpha_mix =  0.700 |ddv_scf|^2 =  9.782E-14

      iter #  10 total cpu time :  6080.7 secs   av.it.:   8.6
      thresh= 3.128E-08 alpha_mix =  0.700 |ddv_scf|^2 =  1.180E-15

      iter #  11 total cpu time :  6155.6 secs   av.it.:   9.7
      thresh= 3.434E-09 alpha_mix =  0.700 |ddv_scf|^2 =  6.351E-16

      iter #  12 total cpu time :  6231.9 secs   av.it.:   9.1
      thresh= 2.520E-09 alpha_mix =  0.700 |ddv_scf|^2 =  1.456E-17

     End of self-consistent calculation

     Convergence has been achieved 


     Representation #   8 mode #   8

     Self-consistent Calculation

      iter #   1 total cpu time :  6284.8 secs   av.it.:   3.9
      thresh= 1.000E-02 alpha_mix =  0.700 |ddv_scf|^2 =  2.854E-07

      iter #   2 total cpu time :  6347.8 secs   av.it.:   9.8
      thresh= 5.343E-05 alpha_mix =  0.700 |ddv_scf|^2 =  6.624E-07

      iter #   3 total cpu time :  6411.6 secs   av.it.:   8.7
      thresh= 8.139E-05 alpha_mix =  0.700 |ddv_scf|^2 =  2.303E-08

      iter #   4 total cpu time :  6476.3 secs   av.it.:   9.1
      thresh= 1.518E-05 alpha_mix =  0.700 |ddv_scf|^2 =  1.841E-09

      iter #   5 total cpu time :  6545.5 secs   av.it.:   9.1
      thresh= 4.291E-06 alpha_mix =  0.700 |ddv_scf|^2 =  1.148E-10

      iter #   6 total cpu time :  6617.4 secs   av.it.:   9.6
      thresh= 1.071E-06 alpha_mix =  0.700 |ddv_scf|^2 =  2.976E-12

      iter #   7 total cpu time :  6689.8 secs   av.it.:   9.9
      thresh= 1.725E-07 alpha_mix =  0.700 |ddv_scf|^2 =  2.506E-13

      iter #   8 total cpu time :  6763.7 secs   av.it.:   9.9
      thresh= 5.006E-08 alpha_mix =  0.700 |ddv_scf|^2 =  5.470E-14

      iter #   9 total cpu time :  6841.4 secs   av.it.:   9.7
      thresh= 2.339E-08 alpha_mix =  0.700 |ddv_scf|^2 =  2.994E-14

      iter #  10 total cpu time :  6920.9 secs   av.it.:   8.9
      thresh= 1.730E-08 alpha_mix =  0.700 |ddv_scf|^2 =  5.081E-15

      iter #  11 total cpu time :  7000.9 secs   av.it.:   9.2
      thresh= 7.128E-09 alpha_mix =  0.700 |ddv_scf|^2 =  5.812E-16

      iter #  12 total cpu time :  7081.5 secs   av.it.:   9.3
      thresh= 2.411E-09 alpha_mix =  0.700 |ddv_scf|^2 =  4.142E-17

     End of self-consistent calculation

     Convergence has been achieved 


     Representation #   9 mode #   9

     Self-consistent Calculation

      iter #   1 total cpu time :  7136.1 secs   av.it.:   4.1
      thresh= 1.000E-02 alpha_mix =  0.700 |ddv_scf|^2 =  1.663E-06

      iter #   2 total cpu time :  7190.5 secs   av.it.:   9.7
      thresh= 1.290E-04 alpha_mix =  0.700 |ddv_scf|^2 =  5.361E-06

      iter #   3 total cpu time :  7255.1 secs   av.it.:   8.6
      thresh= 2.315E-04 alpha_mix =  0.700 |ddv_scf|^2 =  6.436E-08

      iter #   4 total cpu time :  7314.2 secs   av.it.:   9.0
      thresh= 2.537E-05 alpha_mix =  0.700 |ddv_scf|^2 =  1.553E-09

      iter #   5 total cpu time :  7381.2 secs   av.it.:   9.4
      thresh= 3.941E-06 alpha_mix =  0.700 |ddv_scf|^2 =  4.994E-11

      iter #   6 total cpu time :  7456.0 secs   av.it.:   9.8
      thresh= 7.067E-07 alpha_mix =  0.700 |ddv_scf|^2 =  2.805E-12

      iter #   7 total cpu time :  7530.2 secs   av.it.:   9.8
      thresh= 1.675E-07 alpha_mix =  0.700 |ddv_scf|^2 =  2.237E-13

      iter #   8 total cpu time :  7602.7 secs   av.it.:   9.9
      thresh= 4.729E-08 alpha_mix =  0.700 |ddv_scf|^2 =  5.277E-14

      iter #   9 total cpu time :  7679.8 secs   av.it.:   9.6
      thresh= 2.297E-08 alpha_mix =  0.700 |ddv_scf|^2 =  8.750E-14

      iter #  10 total cpu time :  7756.5 secs   av.it.:   8.6
      thresh= 2.958E-08 alpha_mix =  0.700 |ddv_scf|^2 =  3.738E-15

      iter #  11 total cpu time :  7834.9 secs   av.it.:   9.1
      thresh= 6.114E-09 alpha_mix =  0.700 |ddv_scf|^2 =  3.990E-16

      iter #  12 total cpu time :  7917.4 secs   av.it.:   9.6
      thresh= 1.998E-09 alpha_mix =  0.700 |ddv_scf|^2 =  2.082E-17

     End of self-consistent calculation

     Convergence has been achieved 


     Representation #  10 mode #  10

     Self-consistent Calculation

      iter #   1 total cpu time :  7972.1 secs   av.it.:   4.0
      thresh= 1.000E-02 alpha_mix =  0.700 |ddv_scf|^2 =  6.343E-07

      iter #   2 total cpu time :  8028.4 secs   av.it.:   9.8
      thresh= 7.965E-05 alpha_mix =  0.700 |ddv_scf|^2 =  1.548E-06

      iter #   3 total cpu time :  8087.2 secs   av.it.:   8.7
      thresh= 1.244E-04 alpha_mix =  0.700 |ddv_scf|^2 =  5.007E-08

      iter #   4 total cpu time :  8150.0 secs   av.it.:   9.0
      thresh= 2.238E-05 alpha_mix =  0.700 |ddv_scf|^2 =  2.478E-09

      iter #   5 total cpu time :  8222.9 secs   av.it.:   9.3
      thresh= 4.977E-06 alpha_mix =  0.700 |ddv_scf|^2 =  9.244E-11

      iter #   6 total cpu time :  8296.0 secs   av.it.:   9.7
      thresh= 9.615E-07 alpha_mix =  0.700 |ddv_scf|^2 =  3.042E-12

      iter #   7 total cpu time :  8369.7 secs   av.it.:   9.9
      thresh= 1.744E-07 alpha_mix =  0.700 |ddv_scf|^2 =  2.583E-13

      iter #   8 total cpu time :  8443.8 secs   av.it.:   9.9
      thresh= 5.083E-08 alpha_mix =  0.700 |ddv_scf|^2 =  5.007E-14

      iter #   9 total cpu time :  8518.1 secs   av.it.:   9.7
      thresh= 2.238E-08 alpha_mix =  0.700 |ddv_scf|^2 =  9.903E-14

      iter #  10 total cpu time :  8597.9 secs   av.it.:   8.6
      thresh= 3.147E-08 alpha_mix =  0.700 |ddv_scf|^2 =  3.096E-15

      iter #  11 total cpu time :  8676.6 secs   av.it.:   9.2
      thresh= 5.564E-09 alpha_mix =  0.700 |ddv_scf|^2 =  6.511E-16

      iter #  12 total cpu time :  8759.8 secs   av.it.:   9.4
      thresh= 2.552E-09 alpha_mix =  0.700 |ddv_scf|^2 =  6.528E-17

     End of self-consistent calculation

     Convergence has been achieved 


     Representation #  11 mode #  11

     Self-consistent Calculation

      iter #   1 total cpu time :  8809.7 secs   av.it.:   4.1
      thresh= 1.000E-02 alpha_mix =  0.700 |ddv_scf|^2 =  8.198E-07

      iter #   2 total cpu time :  8866.2 secs   av.it.:   9.8
      thresh= 9.054E-05 alpha_mix =  0.700 |ddv_scf|^2 =  2.301E-06

      iter #   3 total cpu time :  8927.2 secs   av.it.:   8.7
      thresh= 1.517E-04 alpha_mix =  0.700 |ddv_scf|^2 =  4.994E-08

      iter #   4 total cpu time :  8991.5 secs   av.it.:   9.0
      thresh= 2.235E-05 alpha_mix =  0.700 |ddv_scf|^2 =  2.167E-09

      iter #   5 total cpu time :  9061.8 secs   av.it.:   9.2
      thresh= 4.655E-06 alpha_mix =  0.700 |ddv_scf|^2 =  8.141E-11

      iter #   6 total cpu time :  9132.0 secs   av.it.:   9.7
      thresh= 9.023E-07 alpha_mix =  0.700 |ddv_scf|^2 =  3.416E-12

      iter #   7 total cpu time :  9204.4 secs   av.it.:   9.8
      thresh= 1.848E-07 alpha_mix =  0.700 |ddv_scf|^2 =  1.671E-13

      iter #   8 total cpu time :  9275.1 secs   av.it.:  10.0
      thresh= 4.088E-08 alpha_mix =  0.700 |ddv_scf|^2 =  6.743E-14

      iter #   9 total cpu time :  9355.4 secs   av.it.:   9.2
      thresh= 2.597E-08 alpha_mix =  0.700 |ddv_scf|^2 =  4.703E-14

      iter #  10 total cpu time :  9435.6 secs   av.it.:   8.8
      thresh= 2.169E-08 alpha_mix =  0.700 |ddv_scf|^2 =  3.792E-15

      iter #  11 total cpu time :  9516.8 secs   av.it.:   9.1
      thresh= 6.158E-09 alpha_mix =  0.700 |ddv_scf|^2 =  5.383E-16

      iter #  12 total cpu time :  9595.7 secs   av.it.:   9.5
      thresh= 2.320E-09 alpha_mix =  0.700 |ddv_scf|^2 =  1.130E-16

      iter #  13 total cpu time :  9677.7 secs   av.it.:   9.2
      thresh= 1.063E-09 alpha_mix =  0.700 |ddv_scf|^2 =  2.565E-17

     End of self-consistent calculation

     Convergence has been achieved 


     Representation #  12 mode #  12

     Self-consistent Calculation

      iter #   1 total cpu time :  9732.9 secs   av.it.:   4.0
      thresh= 1.000E-02 alpha_mix =  0.700 |ddv_scf|^2 =  6.263E-07

      iter #   2 total cpu time :  9782.6 secs   av.it.:   9.7
      thresh= 7.914E-05 alpha_mix =  0.700 |ddv_scf|^2 =  1.321E-06

      iter #   3 total cpu time :  9838.7 secs   av.it.:   8.6
      thresh= 1.149E-04 alpha_mix =  0.700 |ddv_scf|^2 =  5.086E-08

      iter #   4 total cpu time :  9902.8 secs   av.it.:   8.8
      thresh= 2.255E-05 alpha_mix =  0.700 |ddv_scf|^2 =  2.703E-09

      iter #   5 total cpu time :  9972.9 secs   av.it.:   9.1
      thresh= 5.199E-06 alpha_mix =  0.700 |ddv_scf|^2 =  8.196E-11

      iter #   6 total cpu time : 10042.9 secs   av.it.:   9.7
      thresh= 9.053E-07 alpha_mix =  0.700 |ddv_scf|^2 =  2.567E-12

      iter #   7 total cpu time : 10119.7 secs   av.it.:   9.9
      thresh= 1.602E-07 alpha_mix =  0.700 |ddv_scf|^2 =  3.111E-13

      iter #   8 total cpu time : 10190.0 secs   av.it.:   9.9
      thresh= 5.578E-08 alpha_mix =  0.700 |ddv_scf|^2 =  6.047E-14

      iter #   9 total cpu time : 10263.2 secs   av.it.:   9.6
      thresh= 2.459E-08 alpha_mix =  0.700 |ddv_scf|^2 =  5.144E-14

      iter #  10 total cpu time : 10340.2 secs   av.it.:   8.9
      thresh= 2.268E-08 alpha_mix =  0.700 |ddv_scf|^2 =  9.116E-15

      iter #  11 total cpu time : 10415.1 secs   av.it.:   8.9
      thresh= 9.548E-09 alpha_mix =  0.700 |ddv_scf|^2 =  6.560E-16

      iter #  12 total cpu time : 10494.5 secs   av.it.:   9.6
      thresh= 2.561E-09 alpha_mix =  0.700 |ddv_scf|^2 =  6.837E-17

     End of self-consistent calculation

     Convergence has been achieved 


     Representation #  13 mode #  13

     Self-consistent Calculation

      iter #   1 total cpu time : 10549.9 secs   av.it.:   4.0
      thresh= 1.000E-02 alpha_mix =  0.700 |ddv_scf|^2 =  5.996E-07

      iter #   2 total cpu time : 10601.4 secs   av.it.:   9.8
      thresh= 7.744E-05 alpha_mix =  0.700 |ddv_scf|^2 =  1.224E-06

      iter #   3 total cpu time : 10661.1 secs   av.it.:   8.7
      thresh= 1.106E-04 alpha_mix =  0.700 |ddv_scf|^2 =  4.793E-08

      iter #   4 total cpu time : 10727.1 secs   av.it.:   8.9
      thresh= 2.189E-05 alpha_mix =  0.700 |ddv_scf|^2 =  2.603E-09

      iter #   5 total cpu time : 10799.1 secs   av.it.:   9.1
      thresh= 5.102E-06 alpha_mix =  0.700 |ddv_scf|^2 =  1.009E-10

      iter #   6 total cpu time : 10876.5 secs   av.it.:   9.7
      thresh= 1.004E-06 alpha_mix =  0.700 |ddv_scf|^2 =  2.475E-12

      iter #   7 total cpu time : 10959.9 secs   av.it.:   9.8
      thresh= 1.573E-07 alpha_mix =  0.700 |ddv_scf|^2 =  9.255E-14

      iter #   8 total cpu time : 11034.9 secs   av.it.:  10.0
      thresh= 3.042E-08 alpha_mix =  0.700 |ddv_scf|^2 =  2.684E-14

      iter #   9 total cpu time : 11110.8 secs   av.it.:   9.6
      thresh= 1.638E-08 alpha_mix =  0.700 |ddv_scf|^2 =  2.894E-14

      iter #  10 total cpu time : 11188.9 secs   av.it.:   8.7
      thresh= 1.701E-08 alpha_mix =  0.700 |ddv_scf|^2 =  2.783E-15

      iter #  11 total cpu time : 11269.8 secs   av.it.:   9.0
      thresh= 5.276E-09 alpha_mix =  0.700 |ddv_scf|^2 =  4.138E-16

      iter #  12 total cpu time : 11345.7 secs   av.it.:   9.4
      thresh= 2.034E-09 alpha_mix =  0.700 |ddv_scf|^2 =  7.445E-17

     End of self-consistent calculation

     Convergence has been achieved 


     Representation #  14 mode #  14

     Self-consistent Calculation

      iter #   1 total cpu time : 11397.2 secs   av.it.:   6.7
      thresh= 1.000E-02 alpha_mix =  0.700 |ddv_scf|^2 =  3.847E-05

      iter #   2 total cpu time : 11449.1 secs   av.it.:   9.8
      thresh= 6.202E-04 alpha_mix =  0.700 |ddv_scf|^2 =  9.414E-05

      iter #   3 total cpu time : 11504.5 secs   av.it.:   8.5
      thresh= 9.703E-04 alpha_mix =  0.700 |ddv_scf|^2 =  3.209E-06

      iter #   4 total cpu time : 11570.6 secs   av.it.:   9.0
      thresh= 1.791E-04 alpha_mix =  0.700 |ddv_scf|^2 =  5.355E-08

      iter #   5 total cpu time : 11641.6 secs   av.it.:   9.2
      thresh= 2.314E-05 alpha_mix =  0.700 |ddv_scf|^2 =  4.186E-09

      iter #   6 total cpu time : 11718.7 secs   av.it.:   9.4
      thresh= 6.470E-06 alpha_mix =  0.700 |ddv_scf|^2 =  1.490E-10

      iter #   7 total cpu time : 11790.5 secs   av.it.:   9.6
      thresh= 1.221E-06 alpha_mix =  0.700 |ddv_scf|^2 =  8.816E-12

      iter #   8 total cpu time : 11862.7 secs   av.it.:   9.8
      thresh= 2.969E-07 alpha_mix =  0.700 |ddv_scf|^2 =  5.908E-13

      iter #   9 total cpu time : 11945.4 secs   av.it.:   9.7
      thresh= 7.687E-08 alpha_mix =  0.700 |ddv_scf|^2 =  6.029E-13

      iter #  10 total cpu time : 12014.1 secs   av.it.:   8.6
      thresh= 7.765E-08 alpha_mix =  0.700 |ddv_scf|^2 =  1.008E-14

      iter #  11 total cpu time : 12087.4 secs   av.it.:   9.6
      thresh= 1.004E-08 alpha_mix =  0.700 |ddv_scf|^2 =  1.319E-15

      iter #  12 total cpu time : 12166.8 secs   av.it.:   9.3
      thresh= 3.632E-09 alpha_mix =  0.700 |ddv_scf|^2 =  2.470E-16

      iter #  13 total cpu time : 12241.4 secs   av.it.:   9.4
      thresh= 1.572E-09 alpha_mix =  0.700 |ddv_scf|^2 =  2.287E-17

     End of self-consistent calculation

     Convergence has been achieved 


     Representation #  15 mode #  15

     Self-consistent Calculation

      iter #   1 total cpu time : 12289.4 secs   av.it.:   4.1
      thresh= 1.000E-02 alpha_mix =  0.700 |ddv_scf|^2 =  1.363E-06

      iter #   2 total cpu time : 12347.2 secs   av.it.:   9.7
      thresh= 1.167E-04 alpha_mix =  0.700 |ddv_scf|^2 =  4.400E-06

      iter #   3 total cpu time : 12412.4 secs   av.it.:   8.6
      thresh= 2.098E-04 alpha_mix =  0.700 |ddv_scf|^2 =  5.536E-08

      iter #   4 total cpu time : 12470.7 secs   av.it.:   9.0
      thresh= 2.353E-05 alpha_mix =  0.700 |ddv_scf|^2 =  1.550E-09

      iter #   5 total cpu time : 12535.4 secs   av.it.:   9.4
      thresh= 3.937E-06 alpha_mix =  0.700 |ddv_scf|^2 =  5.775E-11

      iter #   6 total cpu time : 12607.5 secs   av.it.:   9.8
      thresh= 7.599E-07 alpha_mix =  0.700 |ddv_scf|^2 =  2.935E-12

      iter #   7 total cpu time : 12683.3 secs   av.it.:   9.8
      thresh= 1.713E-07 alpha_mix =  0.700 |ddv_scf|^2 =  1.678E-13

      iter #   8 total cpu time : 12759.8 secs   av.it.:   9.9
      thresh= 4.096E-08 alpha_mix =  0.700 |ddv_scf|^2 =  6.777E-14

      iter #   9 total cpu time : 12834.2 secs   av.it.:   9.2
      thresh= 2.603E-08 alpha_mix =  0.700 |ddv_scf|^2 =  6.174E-14

      iter #  10 total cpu time : 12911.3 secs   av.it.:   8.8
      thresh= 2.485E-08 alpha_mix =  0.700 |ddv_scf|^2 =  4.313E-15

      iter #  11 total cpu time : 12993.6 secs   av.it.:   9.1
      thresh= 6.567E-09 alpha_mix =  0.700 |ddv_scf|^2 =  5.542E-16

      iter #  12 total cpu time : 13074.4 secs   av.it.:   9.5
      thresh= 2.354E-09 alpha_mix =  0.700 |ddv_scf|^2 =  1.270E-16

      iter #  13 total cpu time : 13147.6 secs   av.it.:   9.1
      thresh= 1.127E-09 alpha_mix =  0.700 |ddv_scf|^2 =  2.449E-17

     End of self-consistent calculation

     Convergence has been achieved 


     Representation #  16 mode #  16

     Self-consistent Calculation

      iter #   1 total cpu time : 13209.5 secs   av.it.:   4.0
      thresh= 1.000E-02 alpha_mix =  0.700 |ddv_scf|^2 =  1.346E-06

      iter #   2 total cpu time : 13271.6 secs   av.it.:   9.7
      thresh= 1.160E-04 alpha_mix =  0.700 |ddv_scf|^2 =  4.619E-06

      iter #   3 total cpu time : 13335.7 secs   av.it.:   8.5
      thresh= 2.149E-04 alpha_mix =  0.700 |ddv_scf|^2 =  3.663E-08

      iter #   4 total cpu time : 13408.5 secs   av.it.:   9.1
      thresh= 1.914E-05 alpha_mix =  0.700 |ddv_scf|^2 =  1.945E-09

      iter #   5 total cpu time : 13490.6 secs   av.it.:   9.3
      thresh= 4.410E-06 alpha_mix =  0.700 |ddv_scf|^2 =  6.688E-11

      iter #   6 total cpu time : 13573.6 secs   av.it.:   9.8
      thresh= 8.178E-07 alpha_mix =  0.700 |ddv_scf|^2 =  2.530E-12

      iter #   7 total cpu time : 13659.3 secs   av.it.:   9.9
      thresh= 1.591E-07 alpha_mix =  0.700 |ddv_scf|^2 =  2.275E-13

      iter #   8 total cpu time : 13749.3 secs   av.it.:   9.8
      thresh= 4.770E-08 alpha_mix =  0.700 |ddv_scf|^2 =  5.698E-14

      iter #   9 total cpu time : 13831.9 secs   av.it.:   9.6
      thresh= 2.387E-08 alpha_mix =  0.700 |ddv_scf|^2 =  1.227E-13

      iter #  10 total cpu time : 13925.5 secs   av.it.:   8.5
      thresh= 3.503E-08 alpha_mix =  0.700 |ddv_scf|^2 =  9.360E-16

      iter #  11 total cpu time : 14009.6 secs   av.it.:   9.7
      thresh= 3.059E-09 alpha_mix =  0.700 |ddv_scf|^2 =  4.988E-16

      iter #  12 total cpu time : 14095.7 secs   av.it.:   9.1
      thresh= 2.233E-09 alpha_mix =  0.700 |ddv_scf|^2 =  1.101E-17

     End of self-consistent calculation

     Convergence has been achieved 


     Representation #  17 mode #  17

     Self-consistent Calculation

      iter #   1 total cpu time : 14149.6 secs   av.it.:   4.0
      thresh= 1.000E-02 alpha_mix =  0.700 |ddv_scf|^2 =  4.981E-07

      iter #   2 total cpu time : 14216.7 secs   av.it.:   9.7
      thresh= 7.058E-05 alpha_mix =  0.700 |ddv_scf|^2 =  1.535E-06

      iter #   3 total cpu time : 14282.6 secs   av.it.:   8.5
      thresh= 1.239E-04 alpha_mix =  0.700 |ddv_scf|^2 =  1.757E-08

      iter #   4 total cpu time : 14355.7 secs   av.it.:   9.3
      thresh= 1.326E-05 alpha_mix =  0.700 |ddv_scf|^2 =  1.766E-09

      iter #   5 total cpu time : 14432.7 secs   av.it.:   9.1
      thresh= 4.203E-06 alpha_mix =  0.700 |ddv_scf|^2 =  1.241E-10

      iter #   6 total cpu time : 14500.7 secs   av.it.:   9.5
      thresh= 1.114E-06 alpha_mix =  0.700 |ddv_scf|^2 =  2.067E-12

      iter #   7 total cpu time : 14575.7 secs   av.it.:   9.9
      thresh= 1.438E-07 alpha_mix =  0.700 |ddv_scf|^2 =  2.646E-13

      iter #   8 total cpu time : 14656.9 secs   av.it.:   9.9
      thresh= 5.144E-08 alpha_mix =  0.700 |ddv_scf|^2 =  7.475E-14

      iter #   9 total cpu time : 14734.4 secs   av.it.:   9.3
      thresh= 2.734E-08 alpha_mix =  0.700 |ddv_scf|^2 =  4.906E-14

      iter #  10 total cpu time : 14812.9 secs   av.it.:   8.8
      thresh= 2.215E-08 alpha_mix =  0.700 |ddv_scf|^2 =  3.563E-15

      iter #  11 total cpu time : 14897.0 secs   av.it.:   9.3
      thresh= 5.969E-09 alpha_mix =  0.700 |ddv_scf|^2 =  4.227E-16

      iter #  12 total cpu time : 14979.3 secs   av.it.:   9.5
      thresh= 2.056E-09 alpha_mix =  0.700 |ddv_scf|^2 =  3.217E-17

     End of self-consistent calculation

     Convergence has been achieved 


     Representation #  18 mode #  18

     Self-consistent Calculation

      iter #   1 total cpu time : 15039.9 secs   av.it.:   6.7
      thresh= 1.000E-02 alpha_mix =  0.700 |ddv_scf|^2 =  4.545E-05

      iter #   2 total cpu time : 15095.9 secs   av.it.:   9.8
      thresh= 6.742E-04 alpha_mix =  0.700 |ddv_scf|^2 =  1.366E-04

      iter #   3 total cpu time : 15159.4 secs   av.it.:   8.4
      thresh= 1.169E-03 alpha_mix =  0.700 |ddv_scf|^2 =  2.193E-06

      iter #   4 total cpu time : 15231.8 secs   av.it.:   9.1
      thresh= 1.481E-04 alpha_mix =  0.700 |ddv_scf|^2 =  1.426E-07

      iter #   5 total cpu time : 15302.9 secs   av.it.:   9.1
      thresh= 3.776E-05 alpha_mix =  0.700 |ddv_scf|^2 =  1.679E-09

      iter #   6 total cpu time : 15376.5 secs   av.it.:   9.6
      thresh= 4.097E-06 alpha_mix =  0.700 |ddv_scf|^2 =  7.031E-11

      iter #   7 total cpu time : 15452.8 secs   av.it.:   9.8
      thresh= 8.385E-07 alpha_mix =  0.700 |ddv_scf|^2 =  5.271E-12

      iter #   8 total cpu time : 15531.1 secs   av.it.:  10.0
      thresh= 2.296E-07 alpha_mix =  0.700 |ddv_scf|^2 =  3.904E-13

      iter #   9 total cpu time : 15612.3 secs   av.it.:   9.8
      thresh= 6.249E-08 alpha_mix =  0.700 |ddv_scf|^2 =  1.417E-13

      iter #  10 total cpu time : 15691.1 secs   av.it.:   9.0
      thresh= 3.765E-08 alpha_mix =  0.700 |ddv_scf|^2 =  4.198E-14

      iter #  11 total cpu time : 15786.9 secs   av.it.:   9.1
      thresh= 2.049E-08 alpha_mix =  0.700 |ddv_scf|^2 =  1.247E-15

      iter #  12 total cpu time : 15870.4 secs   av.it.:   9.7
      thresh= 3.531E-09 alpha_mix =  0.700 |ddv_scf|^2 =  5.016E-16

      iter #  13 total cpu time : 15944.0 secs   av.it.:   9.2
      thresh= 2.240E-09 alpha_mix =  0.700 |ddv_scf|^2 =  7.129E-17

     End of self-consistent calculation

     Convergence has been achieved 


     Representation #  19 mode #  19

     Self-consistent Calculation

      iter #   1 total cpu time : 16002.0 secs   av.it.:   4.1
      thresh= 1.000E-02 alpha_mix =  0.700 |ddv_scf|^2 =  1.531E-06

      iter #   2 total cpu time : 16056.8 secs   av.it.:   9.7
      thresh= 1.237E-04 alpha_mix =  0.700 |ddv_scf|^2 =  5.591E-06

      iter #   3 total cpu time : 16111.6 secs   av.it.:   8.4
      thresh= 2.365E-04 alpha_mix =  0.700 |ddv_scf|^2 =  2.365E-08

      iter #   4 total cpu time : 16178.2 secs   av.it.:   9.3
      thresh= 1.538E-05 alpha_mix =  0.700 |ddv_scf|^2 =  2.191E-09

      iter #   5 total cpu time : 16244.7 secs   av.it.:   9.1
      thresh= 4.681E-06 alpha_mix =  0.700 |ddv_scf|^2 =  1.102E-10

      iter #   6 total cpu time : 16310.8 secs   av.it.:   9.7
      thresh= 1.050E-06 alpha_mix =  0.700 |ddv_scf|^2 =  3.568E-12

      iter #   7 total cpu time : 16381.5 secs   av.it.:   9.9
      thresh= 1.889E-07 alpha_mix =  0.700 |ddv_scf|^2 =  2.393E-13

      iter #   8 total cpu time : 16455.1 secs   av.it.:   9.9
      thresh= 4.892E-08 alpha_mix =  0.700 |ddv_scf|^2 =  6.242E-14

      iter #   9 total cpu time : 16536.9 secs   av.it.:   9.6
      thresh= 2.498E-08 alpha_mix =  0.700 |ddv_scf|^2 =  1.473E-13

      iter #  10 total cpu time : 16618.8 secs   av.it.:   8.5
      thresh= 3.839E-08 alpha_mix =  0.700 |ddv_scf|^2 =  2.176E-15

      iter #  11 total cpu time : 16698.0 secs   av.it.:   9.4
      thresh= 4.665E-09 alpha_mix =  0.700 |ddv_scf|^2 =  5.470E-16

      iter #  12 total cpu time : 16787.2 secs   av.it.:   9.3
      thresh= 2.339E-09 alpha_mix =  0.700 |ddv_scf|^2 =  3.757E-17

     End of self-consistent calculation

     Convergence has been achieved 


     Representation #  20 mode #  20

     Self-consistent Calculation

      iter #   1 total cpu time : 16840.9 secs   av.it.:   4.1
      thresh= 1.000E-02 alpha_mix =  0.700 |ddv_scf|^2 =  1.955E-06

      iter #   2 total cpu time : 16905.0 secs   av.it.:   9.5
      thresh= 1.398E-04 alpha_mix =  0.700 |ddv_scf|^2 =  6.658E-06

      iter #   3 total cpu time : 16975.1 secs   av.it.:   8.4
      thresh= 2.580E-04 alpha_mix =  0.700 |ddv_scf|^2 =  5.174E-08

      iter #   4 total cpu time : 17049.2 secs   av.it.:   9.0
      thresh= 2.275E-05 alpha_mix =  0.700 |ddv_scf|^2 =  1.704E-09

      iter #   5 total cpu time : 17127.6 secs   av.it.:   9.4
      thresh= 4.129E-06 alpha_mix =  0.700 |ddv_scf|^2 =  7.324E-11

      iter #   6 total cpu time : 17210.8 secs   av.it.:   9.8
      thresh= 8.558E-07 alpha_mix =  0.700 |ddv_scf|^2 =  2.600E-12

      iter #   7 total cpu time : 17299.9 secs   av.it.:   9.8
      thresh= 1.613E-07 alpha_mix =  0.700 |ddv_scf|^2 =  1.938E-13

      iter #   8 total cpu time : 17379.4 secs   av.it.:  10.0
      thresh= 4.402E-08 alpha_mix =  0.700 |ddv_scf|^2 =  6.689E-14

      iter #   9 total cpu time : 17461.0 secs   av.it.:   9.5
      thresh= 2.586E-08 alpha_mix =  0.700 |ddv_scf|^2 =  7.637E-14

      iter #  10 total cpu time : 17549.1 secs   av.it.:   8.7
      thresh= 2.764E-08 alpha_mix =  0.700 |ddv_scf|^2 =  5.669E-15

      iter #  11 total cpu time : 17631.4 secs   av.it.:   9.0
      thresh= 7.530E-09 alpha_mix =  0.700 |ddv_scf|^2 =  3.444E-16

      iter #  12 total cpu time : 17717.7 secs   av.it.:   9.7
      thresh= 1.856E-09 alpha_mix =  0.700 |ddv_scf|^2 =  3.577E-17

     End of self-consistent calculation

     Convergence has been achieved 


     Representation #  21 mode #  21

     Self-consistent Calculation

      iter #   1 total cpu time : 17774.2 secs   av.it.:   4.1
      thresh= 1.000E-02 alpha_mix =  0.700 |ddv_scf|^2 =  1.669E-06

      iter #   2 total cpu time : 17838.2 secs   av.it.:   9.5
      thresh= 1.292E-04 alpha_mix =  0.700 |ddv_scf|^2 =  5.861E-06

      iter #   3 total cpu time : 17910.4 secs   av.it.:   8.4
      thresh= 2.421E-04 alpha_mix =  0.700 |ddv_scf|^2 =  3.528E-08

      iter #   4 total cpu time : 17983.4 secs   av.it.:   9.1
      thresh= 1.878E-05 alpha_mix =  0.700 |ddv_scf|^2 =  1.974E-09

      iter #   5 total cpu time : 18065.0 secs   av.it.:   9.3
      thresh= 4.442E-06 alpha_mix =  0.700 |ddv_scf|^2 =  1.122E-10

      iter #   6 total cpu time : 18150.2 secs   av.it.:   9.7
      thresh= 1.059E-06 alpha_mix =  0.700 |ddv_scf|^2 =  2.272E-12

      iter #   7 total cpu time : 18231.9 secs   av.it.:   9.8
      thresh= 1.507E-07 alpha_mix =  0.700 |ddv_scf|^2 =  1.256E-13

      iter #   8 total cpu time : 18317.5 secs   av.it.:   9.9
      thresh= 3.544E-08 alpha_mix =  0.700 |ddv_scf|^2 =  5.313E-14

      iter #   9 total cpu time : 18400.5 secs   av.it.:   9.5
      thresh= 2.305E-08 alpha_mix =  0.700 |ddv_scf|^2 =  5.750E-14

      iter #  10 total cpu time : 18485.6 secs   av.it.:   8.8
      thresh= 2.398E-08 alpha_mix =  0.700 |ddv_scf|^2 =  2.558E-15

      iter #  11 total cpu time : 18566.4 secs   av.it.:   9.1
      thresh= 5.058E-09 alpha_mix =  0.700 |ddv_scf|^2 =  3.279E-16

      iter #  12 total cpu time : 18643.2 secs   av.it.:   9.6
      thresh= 1.811E-09 alpha_mix =  0.700 |ddv_scf|^2 =  2.531E-17

     End of self-consistent calculation

     Convergence has been achieved 
 
     Number of q in the star =   48
     List of q in the star:
          1   0.433012700   0.324759500   0.108253200
          2  -0.433012700  -0.324759500   0.108253200
          3  -0.433012700   0.324759500  -0.108253200
          4   0.433012700  -0.324759500  -0.108253200
          5   0.324759500   0.433012700  -0.108253200
          6  -0.324759500  -0.433012700  -0.108253200
          7   0.324759500  -0.433012700   0.108253200
          8  -0.324759500   0.433012700   0.108253200
          9   0.108253200  -0.324759500   0.433012700
         10  -0.108253200  -0.324759500  -0.433012700
         11   0.108253200   0.324759500  -0.433012700
         12  -0.108253200   0.324759500   0.433012700
         13  -0.433012700   0.108253200   0.324759500
         14  -0.433012700  -0.108253200  -0.324759500
         15   0.433012700   0.108253200  -0.324759500
         16   0.433012700  -0.108253200   0.324759500
         17   0.324759500   0.108253200   0.433012700
         18  -0.324759500   0.108253200  -0.433012700
         19   0.324759500  -0.108253200  -0.433012700
         20  -0.324759500  -0.108253200   0.433012700
         21   0.108253200   0.433012700   0.324759500
         22   0.108253200  -0.433012700  -0.324759500
         23  -0.108253200  -0.433012700   0.324759500
         24  -0.108253200   0.433012700  -0.324759500
         25  -0.433012700  -0.324759500  -0.108253200
         26   0.433012700   0.324759500  -0.108253200
         27   0.433012700  -0.324759500   0.108253200
         28  -0.433012700   0.324759500   0.108253200
         29  -0.324759500  -0.433012700   0.108253200
         30   0.324759500   0.433012700   0.108253200
         31  -0.324759500   0.433012700  -0.108253200
         32   0.324759500  -0.433012700  -0.108253200
         33  -0.108253200   0.324759500  -0.433012700
         34   0.108253200   0.324759500   0.433012700
         35  -0.108253200  -0.324759500   0.433012700
         36   0.108253200  -0.324759500  -0.433012700
         37   0.433012700  -0.108253200  -0.324759500
         38   0.433012700   0.108253200   0.324759500
         39  -0.433012700  -0.108253200   0.324759500
         40  -0.433012700   0.108253200  -0.324759500
         41  -0.324759500  -0.108253200  -0.433012700
         42   0.324759500  -0.108253200   0.433012700
         43  -0.324759500   0.108253200   0.433012700
         44   0.324759500   0.108253200  -0.433012700
         45  -0.108253200  -0.433012700  -0.324759500
         46  -0.108253200   0.433012700   0.324759500
         47   0.108253200   0.433012700  -0.324759500
         48   0.108253200  -0.433012700   0.324759500

     Diagonalizing the dynamical matrix

     q = (    0.433012700   0.324759500   0.108253200 ) 

 **************************************************************************
     freq (    1) =       8.935488 [THz] =     298.055795 [cm-1]
     freq (    2) =      10.089057 [THz] =     336.534715 [cm-1]
     freq (    3) =      13.200427 [THz] =     440.318839 [cm-1]
     freq (    4) =      28.413077 [THz] =     947.758239 [cm-1]
     freq (    5) =      29.970824 [THz] =     999.719069 [cm-1]
     freq (    6) =      32.390609 [THz] =    1080.434410 [cm-1]
     freq (    7) =      34.627957 [THz] =    1155.064304 [cm-1]
     freq (    8) =      37.595835 [THz] =    1254.062056 [cm-1]
     freq (    9) =      38.272505 [THz] =    1276.633366 [cm-1]
     freq (   10) =      39.985594 [THz] =    1333.775843 [cm-1]
     freq (   11) =      40.626010 [THz] =    1355.137820 [cm-1]
     freq (   12) =      41.305127 [THz] =    1377.790730 [cm-1]
     freq (   13) =      42.023414 [THz] =    1401.750219 [cm-1]
     freq (   14) =      43.190493 [THz] =    1440.679763 [cm-1]
     freq (   15) =      44.165682 [THz] =    1473.208581 [cm-1]
     freq (   16) =      45.319743 [THz] =    1511.703918 [cm-1]
     freq (   17) =      46.443065 [THz] =    1549.173909 [cm-1]
     freq (   18) =      48.299095 [THz] =    1611.084401 [cm-1]
     freq (   19) =      48.901637 [THz] =    1631.183025 [cm-1]
     freq (   20) =      52.827488 [THz] =    1762.135316 [cm-1]
     freq (   21) =      57.501150 [THz] =    1918.031897 [cm-1]
 **************************************************************************

     Mode symmetry, C_1 (1)     point group:

     freq (   1-   1) =        298.1  [cm-1]   --> A                  
     freq (   2-   2) =        336.5  [cm-1]   --> A                  
     freq (   3-   3) =        440.3  [cm-1]   --> A                  
     freq (   4-   4) =        947.8  [cm-1]   --> A                  
     freq (   5-   5) =        999.7  [cm-1]   --> A                  
     freq (   6-   6) =       1080.4  [cm-1]   --> A                  
     freq (   7-   7) =       1155.1  [cm-1]   --> A                  
     freq (   8-   8) =       1254.1  [cm-1]   --> A                  
     freq (   9-   9) =       1276.6  [cm-1]   --> A                  
     freq (  10-  10) =       1333.8  [cm-1]   --> A                  
     freq (  11-  11) =       1355.1  [cm-1]   --> A                  
     freq (  12-  12) =       1377.8  [cm-1]   --> A                  
     freq (  13-  13) =       1401.8  [cm-1]   --> A                  
     freq (  14-  14) =       1440.7  [cm-1]   --> A                  
     freq (  15-  15) =       1473.2  [cm-1]   --> A                  
     freq (  16-  16) =       1511.7  [cm-1]   --> A                  
     freq (  17-  17) =       1549.2  [cm-1]   --> A                  
     freq (  18-  18) =       1611.1  [cm-1]   --> A                  
     freq (  19-  19) =       1631.2  [cm-1]   --> A                  
     freq (  20-  20) =       1762.1  [cm-1]   --> A                  
     freq (  21-  21) =       1918.0  [cm-1]   --> A                  
     electron-phonon interaction  ...

     Gaussian Broadening:   0.005 Ry, ngauss=   0
     DOS =  1.900675 states/spin/Ry/Unit Cell at Ef= 17.155196 eV
     lambda(    1)=  0.0283   gamma=    4.10 GHz
     lambda(    2)=  0.0407   gamma=    7.52 GHz
     lambda(    3)=  0.0198   gamma=    6.26 GHz
     lambda(    4)=  0.0998   gamma=  146.24 GHz
     lambda(    5)=  0.2761   gamma=  450.09 GHz
     lambda(    6)=  0.0971   gamma=  184.97 GHz
     lambda(    7)=  0.1202   gamma=  261.56 GHz
     lambda(    8)=  0.0677   gamma=  173.63 GHz
     lambda(    9)=  0.0691   gamma=  183.71 GHz
     lambda(   10)=  0.0173   gamma=   50.30 GHz
     lambda(   11)=  0.0065   gamma=   19.41 GHz
     lambda(   12)=  0.0114   gamma=   35.35 GHz
     lambda(   13)=  0.0069   gamma=   22.03 GHz
     lambda(   14)=  0.0368   gamma=  124.69 GHz
     lambda(   15)=  0.0016   gamma=    5.75 GHz
     lambda(   16)=  0.0039   gamma=   14.53 GHz
     lambda(   17)=  0.0052   gamma=   20.53 GHz
     lambda(   18)=  0.0153   gamma=   64.86 GHz
     lambda(   19)=  0.0042   gamma=   18.08 GHz
     lambda(   20)=  0.0091   gamma=   46.01 GHz
     lambda(   21)=  0.0025   gamma=   15.02 GHz
     Gaussian Broadening:   0.010 Ry, ngauss=   0
     DOS =  2.130656 states/spin/Ry/Unit Cell at Ef= 17.149400 eV
     lambda(    1)=  0.0613   gamma=    9.95 GHz
     lambda(    2)=  0.0633   gamma=   13.11 GHz
     lambda(    3)=  0.0285   gamma=   10.12 GHz
     lambda(    4)=  0.2871   gamma=  471.65 GHz
     lambda(    5)=  0.4061   gamma=  742.17 GHz
     lambda(    6)=  0.1364   gamma=  291.13 GHz
     lambda(    7)=  0.1854   gamma=  452.29 GHz
     lambda(    8)=  0.1099   gamma=  316.20 GHz
     lambda(    9)=  0.1186   gamma=  353.55 GHz
     lambda(   10)=  0.0218   gamma=   70.93 GHz
     lambda(   11)=  0.0099   gamma=   33.24 GHz
     lambda(   12)=  0.0275   gamma=   95.43 GHz
     lambda(   13)=  0.0164   gamma=   58.79 GHz
     lambda(   14)=  0.0522   gamma=  198.11 GHz
     lambda(   15)=  0.0038   gamma=   15.20 GHz
     lambda(   16)=  0.0086   gamma=   36.01 GHz
     lambda(   17)=  0.0079   gamma=   34.48 GHz
     lambda(   18)=  0.0176   gamma=   83.62 GHz
     lambda(   19)=  0.0079   gamma=   38.20 GHz
     lambda(   20)=  0.0155   gamma=   87.73 GHz
     lambda(   21)=  0.0075   gamma=   50.21 GHz
     Gaussian Broadening:   0.015 Ry, ngauss=   0
     DOS =  2.235086 states/spin/Ry/Unit Cell at Ef= 17.146382 eV
     lambda(    1)=  0.0703   gamma=   11.98 GHz
     lambda(    2)=  0.0646   gamma=   14.04 GHz
     lambda(    3)=  0.0331   gamma=   12.32 GHz
     lambda(    4)=  0.3377   gamma=  581.96 GHz
     lambda(    5)=  0.4032   gamma=  773.04 GHz
     lambda(    6)=  0.1551   gamma=  347.28 GHz
     lambda(    7)=  0.1949   gamma=  498.76 GHz
     lambda(    8)=  0.1210   gamma=  365.00 GHz
     lambda(    9)=  0.1316   gamma=  411.30 GHz
     lambda(   10)=  0.0219   gamma=   74.81 GHz
     lambda(   11)=  0.0109   gamma=   38.56 GHz
     lambda(   12)=  0.0311   gamma=  113.41 GHz
     lambda(   13)=  0.0177   gamma=   66.82 GHz
     lambda(   14)=  0.0524   gamma=  208.43 GHz
     lambda(   15)=  0.0045   gamma=   18.83 GHz
     lambda(   16)=  0.0101   gamma=   44.27 GHz
     lambda(   17)=  0.0083   gamma=   38.25 GHz
     lambda(   18)=  0.0169   gamma=   84.31 GHz
     lambda(   19)=  0.0084   gamma=   42.66 GHz
     lambda(   20)=  0.0165   gamma=   98.53 GHz
     lambda(   21)=  0.0083   gamma=   58.78 GHz
     Gaussian Broadening:   0.020 Ry, ngauss=   0
     DOS =  2.290454 states/spin/Ry/Unit Cell at Ef= 17.145317 eV
     lambda(    1)=  0.0766   gamma=   13.37 GHz
     lambda(    2)=  0.0659   gamma=   14.67 GHz
     lambda(    3)=  0.0360   gamma=   13.72 GHz
     lambda(    4)=  0.3561   gamma=  628.80 GHz
     lambda(    5)=  0.4016   gamma=  788.93 GHz
     lambda(    6)=  0.1670   gamma=  383.17 GHz
     lambda(    7)=  0.2009   gamma=  526.86 GHz
     lambda(    8)=  0.1298   gamma=  401.16 GHz
     lambda(    9)=  0.1380   gamma=  442.23 GHz
     lambda(   10)=  0.0225   gamma=   78.64 GHz
     lambda(   11)=  0.0116   gamma=   41.95 GHz
     lambda(   12)=  0.0324   gamma=  120.99 GHz
     lambda(   13)=  0.0188   gamma=   72.62 GHz
     lambda(   14)=  0.0546   gamma=  222.89 GHz
     lambda(   15)=  0.0048   gamma=   20.68 GHz
     lambda(   16)=  0.0107   gamma=   48.14 GHz
     lambda(   17)=  0.0086   gamma=   40.74 GHz
     lambda(   18)=  0.0168   gamma=   85.65 GHz
     lambda(   19)=  0.0087   gamma=   45.66 GHz
     lambda(   20)=  0.0176   gamma=  107.14 GHz
     lambda(   21)=  0.0083   gamma=   60.09 GHz
     Gaussian Broadening:   0.025 Ry, ngauss=   0
     DOS =  2.332190 states/spin/Ry/Unit Cell at Ef= 17.144758 eV
     lambda(    1)=  0.0804   gamma=   14.29 GHz
     lambda(    2)=  0.0677   gamma=   15.35 GHz
     lambda(    3)=  0.0378   gamma=   14.68 GHz
     lambda(    4)=  0.3676   gamma=  660.89 GHz
     lambda(    5)=  0.4030   gamma=  806.24 GHz
     lambda(    6)=  0.1744   gamma=  407.38 GHz
     lambda(    7)=  0.2068   gamma=  552.32 GHz
     lambda(    8)=  0.1355   gamma=  426.39 GHz
     lambda(    9)=  0.1427   gamma=  465.45 GHz
     lambda(   10)=  0.0231   gamma=   82.14 GHz
     lambda(   11)=  0.0121   gamma=   44.55 GHz
     lambda(   12)=  0.0333   gamma=  126.49 GHz
     lambda(   13)=  0.0197   gamma=   77.35 GHz
     lambda(   14)=  0.0568   gamma=  235.97 GHz
     lambda(   15)=  0.0051   gamma=   21.96 GHz
     lambda(   16)=  0.0111   gamma=   50.70 GHz
     lambda(   17)=  0.0090   gamma=   43.29 GHz
     lambda(   18)=  0.0170   gamma=   88.32 GHz
     lambda(   19)=  0.0091   gamma=   48.58 GHz
     lambda(   20)=  0.0187   gamma=  116.04 GHz
     lambda(   21)=  0.0084   gamma=   61.52 GHz
     Gaussian Broadening:   0.030 Ry, ngauss=   0
     DOS =  2.360595 states/spin/Ry/Unit Cell at Ef= 17.144134 eV
     lambda(    1)=  0.0825   gamma=   14.85 GHz
     lambda(    2)=  0.0690   gamma=   15.83 GHz
     lambda(    3)=  0.0390   gamma=   15.31 GHz
     lambda(    4)=  0.3744   gamma=  681.26 GHz
     lambda(    5)=  0.4041   gamma=  818.26 GHz
     lambda(    6)=  0.1783   gamma=  421.68 GHz
     lambda(    7)=  0.2104   gamma=  568.77 GHz
     lambda(    8)=  0.1381   gamma=  439.87 GHz
     lambda(    9)=  0.1449   gamma=  478.44 GHz
     lambda(   10)=  0.0235   gamma=   84.56 GHz
     lambda(   11)=  0.0125   gamma=   46.58 GHz
     lambda(   12)=  0.0339   gamma=  130.35 GHz
     lambda(   13)=  0.0203   gamma=   80.80 GHz
     lambda(   14)=  0.0583   gamma=  245.19 GHz
     lambda(   15)=  0.0052   gamma=   22.87 GHz
     lambda(   16)=  0.0114   gamma=   52.63 GHz
     lambda(   17)=  0.0094   gamma=   45.77 GHz
     lambda(   18)=  0.0172   gamma=   90.65 GHz
     lambda(   19)=  0.0095   gamma=   51.22 GHz
     lambda(   20)=  0.0196   gamma=  123.05 GHz
     lambda(   21)=  0.0085   gamma=   63.41 GHz
     Gaussian Broadening:   0.035 Ry, ngauss=   0
     DOS =  2.381114 states/spin/Ry/Unit Cell at Ef= 17.143351 eV
     lambda(    1)=  0.0840   gamma=   15.25 GHz
     lambda(    2)=  0.0698   gamma=   16.14 GHz
     lambda(    3)=  0.0397   gamma=   15.73 GHz
     lambda(    4)=  0.3783   gamma=  694.36 GHz
     lambda(    5)=  0.4041   gamma=  825.42 GHz
     lambda(    6)=  0.1806   gamma=  430.90 GHz
     lambda(    7)=  0.2121   gamma=  578.29 GHz
     lambda(    8)=  0.1391   gamma=  447.13 GHz
     lambda(    9)=  0.1454   gamma=  484.12 GHz
     lambda(   10)=  0.0237   gamma=   86.30 GHz
     lambda(   11)=  0.0129   gamma=   48.50 GHz
     lambda(   12)=  0.0343   gamma=  133.24 GHz
     lambda(   13)=  0.0208   gamma=   83.70 GHz
     lambda(   14)=  0.0595   gamma=  252.58 GHz
     lambda(   15)=  0.0053   gamma=   23.61 GHz
     lambda(   16)=  0.0117   gamma=   54.53 GHz
     lambda(   17)=  0.0099   gamma=   48.53 GHz
     lambda(   18)=  0.0175   gamma=   92.64 GHz
     lambda(   19)=  0.0099   gamma=   53.79 GHz
     lambda(   20)=  0.0202   gamma=  128.48 GHz
     lambda(   21)=  0.0088   gamma=   65.82 GHz
     Gaussian Broadening:   0.040 Ry, ngauss=   0
     DOS =  2.398900 states/spin/Ry/Unit Cell at Ef= 17.142416 eV
     lambda(    1)=  0.0854   gamma=   15.62 GHz
     lambda(    2)=  0.0702   gamma=   16.38 GHz
     lambda(    3)=  0.0402   gamma=   16.06 GHz
     lambda(    4)=  0.3811   gamma=  704.87 GHz
     lambda(    5)=  0.4032   gamma=  829.75 GHz
     lambda(    6)=  0.1825   gamma=  438.62 GHz
     lambda(    7)=  0.2127   gamma=  584.19 GHz
     lambda(    8)=  0.1396   gamma=  451.95 GHz
     lambda(    9)=  0.1448   gamma=  486.02 GHz
     lambda(   10)=  0.0240   gamma=   87.78 GHz
     lambda(   11)=  0.0134   gamma=   50.56 GHz
     lambda(   12)=  0.0347   gamma=  135.72 GHz
     lambda(   13)=  0.0214   gamma=   86.53 GHz
     lambda(   14)=  0.0608   gamma=  259.64 GHz
     lambda(   15)=  0.0054   gamma=   24.35 GHz
     lambda(   16)=  0.0121   gamma=   56.76 GHz
     lambda(   17)=  0.0105   gamma=   51.87 GHz
     lambda(   18)=  0.0177   gamma=   94.52 GHz
     lambda(   19)=  0.0103   gamma=   56.45 GHz
     lambda(   20)=  0.0208   gamma=  133.14 GHz
     lambda(   21)=  0.0091   gamma=   68.77 GHz
     Gaussian Broadening:   0.045 Ry, ngauss=   0
     DOS =  2.416850 states/spin/Ry/Unit Cell at Ef= 17.141341 eV
     lambda(    1)=  0.0869   gamma=   16.02 GHz
     lambda(    2)=  0.0706   gamma=   16.58 GHz
     lambda(    3)=  0.0407   gamma=   16.36 GHz
     lambda(    4)=  0.3839   gamma=  715.33 GHz
     lambda(    5)=  0.4016   gamma=  832.54 GHz
     lambda(    6)=  0.1844   gamma=  446.49 GHz
     lambda(    7)=  0.2127   gamma=  588.65 GHz
     lambda(    8)=  0.1398   gamma=  456.01 GHz
     lambda(    9)=  0.1439   gamma=  486.36 GHz
     lambda(   10)=  0.0242   gamma=   89.21 GHz
     lambda(   11)=  0.0139   gamma=   52.83 GHz
     lambda(   12)=  0.0351   gamma=  138.06 GHz
     lambda(   13)=  0.0219   gamma=   89.44 GHz
     lambda(   14)=  0.0620   gamma=  266.87 GHz
     lambda(   15)=  0.0056   gamma=   25.13 GHz
     lambda(   16)=  0.0125   gamma=   59.40 GHz
     lambda(   17)=  0.0112   gamma=   55.80 GHz
     lambda(   18)=  0.0179   gamma=   96.42 GHz
     lambda(   19)=  0.0107   gamma=   59.26 GHz
     lambda(   20)=  0.0213   gamma=  137.47 GHz
     lambda(   21)=  0.0095   gamma=   72.22 GHz
     Gaussian Broadening:   0.050 Ry, ngauss=   0
     DOS =  2.436152 states/spin/Ry/Unit Cell at Ef= 17.140123 eV
     lambda(    1)=  0.0886   gamma=   16.45 GHz
     lambda(    2)=  0.0709   gamma=   16.79 GHz
     lambda(    3)=  0.0411   gamma=   16.65 GHz
     lambda(    4)=  0.3868   gamma=  726.47 GHz
     lambda(    5)=  0.3993   gamma=  834.42 GHz
     lambda(    6)=  0.1864   gamma=  454.96 GHz
     lambda(    7)=  0.2125   gamma=  592.76 GHz
     lambda(    8)=  0.1398   gamma=  459.84 GHz
     lambda(    9)=  0.1427   gamma=  486.17 GHz
     lambda(   10)=  0.0244   gamma=   90.68 GHz
     lambda(   11)=  0.0144   gamma=   55.25 GHz
     lambda(   12)=  0.0354   gamma=  140.36 GHz
     lambda(   13)=  0.0225   gamma=   92.45 GHz
     lambda(   14)=  0.0632   gamma=  274.26 GHz
     lambda(   15)=  0.0057   gamma=   26.00 GHz
     lambda(   16)=  0.0130   gamma=   62.32 GHz
     lambda(   17)=  0.0120   gamma=   60.16 GHz
     lambda(   18)=  0.0181   gamma=   98.36 GHz
     lambda(   19)=  0.0112   gamma=   62.18 GHz
     lambda(   20)=  0.0218   gamma=  141.66 GHz
     lambda(   21)=  0.0099   gamma=   76.12 GHz
 
 
     Number of q in the star =   48
     List of q in the star:
          1   0.433012700   0.324759500   0.108253200
          2  -0.433012700  -0.324759500   0.108253200
          3  -0.433012700   0.324759500  -0.108253200
          4   0.433012700  -0.324759500  -0.108253200
          5   0.324759500   0.433012700  -0.108253200
          6  -0.324759500  -0.433012700  -0.108253200
          7   0.324759500  -0.433012700   0.108253200
          8  -0.324759500   0.433012700   0.108253200
          9   0.108253200  -0.324759500   0.433012700
         10  -0.108253200  -0.324759500  -0.433012700
         11   0.108253200   0.324759500  -0.433012700
         12  -0.108253200   0.324759500   0.433012700
         13  -0.433012700   0.108253200   0.324759500
         14  -0.433012700  -0.108253200  -0.324759500
         15   0.433012700   0.108253200  -0.324759500
         16   0.433012700  -0.108253200   0.324759500
         17   0.324759500   0.108253200   0.433012700
         18  -0.324759500   0.108253200  -0.433012700
         19   0.324759500  -0.108253200  -0.433012700
         20  -0.324759500  -0.108253200   0.433012700
         21   0.108253200   0.433012700   0.324759500
         22   0.108253200  -0.433012700  -0.324759500
         23  -0.108253200  -0.433012700   0.324759500
         24  -0.108253200   0.433012700  -0.324759500
         25  -0.433012700  -0.324759500  -0.108253200
         26   0.433012700   0.324759500  -0.108253200
         27   0.433012700  -0.324759500   0.108253200
         28  -0.433012700   0.324759500   0.108253200
         29  -0.324759500  -0.433012700   0.108253200
         30   0.324759500   0.433012700   0.108253200
         31  -0.324759500   0.433012700  -0.108253200
         32   0.324759500  -0.433012700  -0.108253200
         33  -0.108253200   0.324759500  -0.433012700
         34   0.108253200   0.324759500   0.433012700
         35  -0.108253200  -0.324759500   0.433012700
         36   0.108253200  -0.324759500  -0.433012700
         37   0.433012700  -0.108253200  -0.324759500
         38   0.433012700   0.108253200   0.324759500
         39  -0.433012700  -0.108253200   0.324759500
         40  -0.433012700   0.108253200  -0.324759500
         41  -0.324759500  -0.108253200  -0.433012700
         42   0.324759500  -0.108253200   0.433012700
         43  -0.324759500   0.108253200   0.433012700
         44   0.324759500   0.108253200  -0.433012700
         45  -0.108253200  -0.433012700  -0.324759500
         46  -0.108253200   0.433012700   0.324759500
         47   0.108253200   0.433012700  -0.324759500
         48   0.108253200  -0.433012700   0.324759500
 
     init_run     :      0.08s CPU      0.24s WALL (       1 calls)
     electrons    :     62.11s CPU     67.88s WALL (       1 calls)

     Called by init_run:
     wfcinit      :      0.00s CPU      0.05s WALL (       1 calls)
     potinit      :      0.01s CPU      0.10s WALL (       1 calls)
     hinit0       :      0.04s CPU      0.04s WALL (       1 calls)

     Called by electrons:
     c_bands      :     62.03s CPU     67.63s WALL (       1 calls)
     v_of_rho     :      0.01s CPU      0.05s WALL (       2 calls)
     newd         :      0.01s CPU      0.03s WALL (       2 calls)

     Called by c_bands:
     init_us_2    :      8.37s CPU      9.49s WALL (  312320 calls)
     cegterg      :     31.60s CPU     33.98s WALL (    2080 calls)

     Called by *egterg:
     cdiaghg      :     10.95s CPU     11.74s WALL (   32232 calls)
     h_psi        :   6751.05s CPU   8226.67s WALL ( 3759052 calls)
     s_psi        :     74.48s CPU     85.36s WALL ( 7746960 calls)
     g_psi        :      0.10s CPU      0.10s WALL (   30184 calls)

     Called by h_psi:
     h_psi:calbec :     67.56s CPU     76.60s WALL ( 3759052 calls)
     vloc_psi     :   6616.02s CPU   8073.19s WALL ( 3759052 calls)
     add_vuspsi   :     35.81s CPU     40.95s WALL ( 3759052 calls)

     General routines
     calbec       :    238.41s CPU    258.59s WALL ( 8131984 calls)
     fft          :      4.84s CPU      6.17s WALL (    4823 calls)
     ffts         :      1.30s CPU      1.50s WALL (   22503 calls)
     fftw         :   9520.33s CPU  11666.12s WALL (49996373 calls)
     interpolate  :      0.37s CPU      0.45s WALL (     537 calls)
     davcio       :     58.67s CPU   2068.25s WALL ( 1391691 calls)
 
     Parallel routines
 
     PHONON       :      3h56m CPU      5h11m WALL

     INITIALIZATION: 
     phq_setup    :      0.02s CPU      0.04s WALL (       1 calls)
     phq_init     :     49.11s CPU     55.20s WALL (       1 calls)
 
     phq_init     :     49.11s CPU     55.20s WALL (       1 calls)
     set_drhoc    :      0.04s CPU      0.04s WALL (       3 calls)
     init_vloc    :      0.00s CPU      0.01s WALL (       2 calls)
     init_us_1    :      0.06s CPU      0.16s WALL (       2 calls)
     newd         :      0.01s CPU      0.03s WALL (       2 calls)
     dvanqq       :      0.18s CPU      0.18s WALL (       1 calls)
     drho         :     28.66s CPU     32.48s WALL (       1 calls)
 
     DYNAMICAL MATRIX:
     dynmat0      :     10.31s CPU     11.44s WALL (       1 calls)
     phqscf       :  14055.04s CPU  18538.76s WALL (       1 calls)
     dynmatrix    :      0.05s CPU      0.08s WALL (       1 calls)
 
     phqscf       :  14055.04s CPU  18538.76s WALL (       1 calls)
     solve_linter :  13956.92s CPU  18426.63s WALL (      21 calls)
     drhodv       :     98.10s CPU    108.08s WALL (      21 calls)
 
     dynmat0      :     10.31s CPU     11.44s WALL (       1 calls)
     dynmat_us    :     10.27s CPU     11.38s WALL (       1 calls)
     d2ionq       :      0.01s CPU      0.01s WALL (       1 calls)
     dynmatcc     :      0.03s CPU      0.03s WALL (       1 calls)
 
     dynmat_us    :     10.27s CPU     11.38s WALL (       1 calls)
     addusdynmat  :      0.00s CPU      0.00s WALL (       1 calls)
 
     phqscf       :  14055.04s CPU  18538.76s WALL (       1 calls)
     solve_linter :  13956.92s CPU  18426.63s WALL (      21 calls)
 
     solve_linter :  13956.92s CPU  18426.63s WALL (      21 calls)
     dvqpsi_us    :     31.53s CPU     34.63s WALL (   21504 calls)
     ortho        :    127.58s CPU    133.94s WALL (  263168 calls)
     cgsolve      :   7008.41s CPU   8521.25s WALL (  263168 calls)
     incdrhoscf   :   1611.21s CPU   1989.32s WALL (  263168 calls)
     addusddens   :      4.28s CPU      6.96s WALL (     278 calls)
     vpsifft      :   1443.56s CPU   1775.38s WALL (  263168 calls)
     dv_of_drho   :      0.63s CPU      0.69s WALL (     257 calls)
     mix_pot      :     32.05s CPU     85.97s WALL (     257 calls)
     newdq        :      3.51s CPU      3.53s WALL (     257 calls)
     adddvscf     :      8.29s CPU      9.65s WALL (  263168 calls)
     drhodvus     :     10.76s CPU     23.15s WALL (      21 calls)
 
     dvqpsi_us    :     31.53s CPU     34.63s WALL (   21504 calls)
     dvqpsi_us_on :     12.04s CPU     12.87s WALL (   21504 calls)
 
     cgsolve      :   7008.41s CPU   8521.25s WALL (  263168 calls)
     ch_psi       :   6961.70s CPU   8467.44s WALL ( 3724740 calls)
 
     ch_psi       :   6961.70s CPU   8467.44s WALL ( 3724740 calls)
     h_psi        :   6751.05s CPU   8226.67s WALL ( 3759052 calls)
     last         :    150.46s CPU    171.27s WALL ( 3724740 calls)
 
     h_psi        :   6751.05s CPU   8226.67s WALL ( 3759052 calls)
     add_vuspsi   :     35.81s CPU     40.95s WALL ( 3759052 calls)
 
     incdrhoscf   :   1611.21s CPU   1989.32s WALL (  263168 calls)
     addusdbec    :      8.28s CPU      9.37s WALL (  284672 calls)
 
     drhodvus     :     10.76s CPU     23.15s WALL (      21 calls)
 
      Electron-phonon coupling
     elphel       :    276.09s CPU    384.55s WALL (      21 calls)
     elphsum      :     32.33s CPU     33.35s WALL (       1 calls)
 
      General routines
     calbec       :    238.41s CPU    258.59s WALL ( 8131984 calls)
     fft          :      4.84s CPU      6.17s WALL (    4823 calls)
     ffts         :      1.30s CPU      1.50s WALL (   22503 calls)
     fftw         :   9520.33s CPU  11666.12s WALL (49996373 calls)
     davcio       :     58.67s CPU   2068.25s WALL ( 1391691 calls)
     write_rec    :      0.19s CPU     53.76s WALL (     278 calls)
 
 
     PHONON       :      3h56m CPU      5h11m WALL

 
   This run was terminated on:   8: 3:36  22Jul2022            

=------------------------------------------------------------------------------=
   JOB DONE.
=------------------------------------------------------------------------------=
