
     Program PHONON v.6.8 starts on 21Jul2022 at 18:59:50 

     This program is part of the open-source Quantum ESPRESSO suite
     for quantum simulation of materials; please cite
         "P. Giannozzi et al., J. Phys.:Condens. Matter 21 395502 (2009);
         "P. Giannozzi et al., J. Phys.:Condens. Matter 29 465901 (2017);
         "P. Giannozzi et al., J. Chem. Phys. 152 154105 (2020);
          URL http://www.quantum-espresso.org", 
     in publications or presentations arising from this work. More details at
     http://www.quantum-espresso.org/quote

     Parallel version (MPI), running on    48 processors

     MPI processes distributed on     1 nodes
     K-points division:     npool     =       4
     R & G space division:  proc/nbgrp/npool/nimage =      12
     188679 MiB available memory on the printing compute node when the environment starts
 
     Waiting for input...
     Reading input from standard input

     Reading xml data from directory:

     ./tmp/Ca1H6.save/

     IMPORTANT: XC functional enforced from input :
     Exchange-correlation= PBE
                           (   1   4   3   4   0   0   0)
     Any further DFT definition will be discarded
     Please, verify this is what you really want

 
     Parallelization info
     --------------------
     sticks:   dense  smooth     PW     G-vecs:    dense   smooth      PW
     Min         139      46     17                 3602      698     155
     Max         140      47     18                 3604      701     157
     Sum        1669     557    205                43227     8391    1865
 
     Using Slab Decomposition
 
     Reading collected, re-writing distributed wavefunctions

     Saving dvscf to file. Distribute only q points, not irreducible represetations.

     Calculation of q =    0.4330127   0.4330127   0.2165064

     Subspace diagonalization in iterative solution of the eigenvalue problem:
     a serial algorithm will be used

 
     Parallelization info
     --------------------
     sticks:   dense  smooth     PW     G-vecs:    dense   smooth      PW
     Min         139      46     17                 3602      698     162
     Max         140      47     18                 3604      701     164
     Sum        1669     557    213                43227     8391    1961
 
     Using Slab Decomposition
 

     Title: 
     Electron-phonon coefficients for Ca1H6                                     


     bravais-lattice index     =            0
     lattice parameter (alat)  =       5.5613  a.u.
     unit-cell volume          =     132.4087 (a.u.)^3
     number of atoms/cell      =            7
     number of atomic types    =            2
     number of electrons       =        16.00
     number of Kohn-Sham states=           12
     kinetic-energy cutoff     =      60.0000  Ry
     charge density cutoff     =     720.0000  Ry
     Exchange-correlation= PBE
                           (   1   4   3   4   0   0   0)

     celldm(1)=   5.561340  celldm(2)=   0.000000  celldm(3)=   0.000000
     celldm(4)=   0.000000  celldm(5)=   0.000000  celldm(6)=   0.000000

     crystal axes: (cart. coord. in units of alat)
               a(1) = (  -0.577350   0.577350   0.577350 )  
               a(2) = (   0.577350  -0.577350   0.577350 )  
               a(3) = (   0.577350   0.577350  -0.577350 )  

     reciprocal axes: (cart. coord. in units 2 pi/alat)
               b(1) = ( -0.000000  0.866025  0.866025 )  
               b(2) = (  0.866025 -0.000000  0.866025 )  
               b(3) = (  0.866025  0.866025  0.000000 )  


     PseudoPot. # 1 for Ca read from file:
     /work/home/mayuan/code/my_script/scripts_tests/out2/200.0/pp/ca_pbe_v1.uspp.F.UPF
     MD5 check sum: 403a4c14b9e4d4dfdc3024c9a3812218
     Pseudo is Ultrasoft + core correction, Zval = 10.0
     Generated by new atomic code, or converted to UPF format
     Using radial grid of  845 points,  6 beta functions with: 
                l(1) =   0
                l(2) =   0
                l(3) =   1
                l(4) =   1
                l(5) =   2
                l(6) =   2
     Q(r) pseudized with  8 coefficients,  rinner =    1.500   1.500   1.500
                                                       1.500   1.500

     PseudoPot. # 2 for H  read from file:
     /work/home/mayuan/code/my_script/scripts_tests/out2/200.0/pp/h_pbe_v1.uspp.F.UPF
     MD5 check sum: 3408e3ff4ec8b0a4e358431e7e038a48
     Pseudo is Ultrasoft, Zval =  1.0
     Generated by new atomic code, or converted to UPF format
     Using radial grid of  615 points,  2 beta functions with: 
                l(1) =   0
                l(2) =   0
     Q(r) pseudized with  8 coefficients,  rinner =    0.700

     atomic species   valence    mass     pseudopotential
        Ca            10.00    40.07800     Ca( 1.00)
        H              1.00     1.00794     H ( 1.00)

     48 Sym. Ops., with inversion, found



   Cartesian axes

     site n.     atom                  positions (alat units)
         1           Ca  tau(   1) = (   0.0000000   0.0000000   0.0000000  )
         2           H   tau(   2) = (   0.2886751   0.0000000   0.5773503  )
         3           H   tau(   3) = (   0.2886751   0.5773503   0.0000000  )
         4           H   tau(   4) = (   0.5773503   0.2886751   0.0000000  )
         5           H   tau(   5) = (   0.0000000   0.2886751   0.5773503  )
         6           H   tau(   6) = (   0.0000000   0.5773503   0.2886751  )
         7           H   tau(   7) = (   0.5773503   0.0000000   0.2886751  )

     number of k points=  2320  Methfessel-Paxton smearing, width (Ry)=  0.0200

     Number of k-points >= 100: set verbosity='high' to print them.

     Dense  grid:    43227 G-vectors     FFT dimensions: (  48,  48,  48)

     Smooth grid:     8391 G-vectors     FFT dimensions: (  27,  27,  27)

     Estimated max dynamical RAM per process >       8.38 MB

     Estimated total dynamical RAM >     402.10 MB

     The potential is recalculated from file :
     ./tmp/_ph0/Ca1H6.save/charge-density

     Starting wfcs are   16 atomic wfcs

     Band Structure Calculation
     Davidson diagonalization with overlap

     ethr =  6.25E-11,  avg # of iterations = 14.9

     total cpu time spent up to now is       16.2 secs

     End of band structure calculation

     Number of k-points >= 100: set verbosity='high' to print the bands.

     the Fermi energy is    17.0980 ev

     Writing output data file ./tmp/_ph0/Ca1H6.save/

     Electron-phonon coefficients for Ca1H6                                     

     bravais-lattice index     =            0
     lattice parameter (alat)  =       5.5613  a.u.
     unit-cell volume          =     132.4087 (a.u.)^3
     number of atoms/cell      =            7
     number of atomic types    =            2
     kinetic-energy cut-off    =      60.0000  Ry
     charge density cut-off    =     720.0000  Ry
     convergence threshold     =      1.0E-16
     beta                      =       0.7000
     number of iterations used =            4
     Exchange-correlation= PBE
                           (   1   4   3   4   0   0   0)


     celldm(1)=    5.56134  celldm(2)=    0.00000  celldm(3)=    0.00000
     celldm(4)=    0.00000  celldm(5)=    0.00000  celldm(6)=    0.00000

     crystal axes: (cart. coord. in units of alat)
               a(1) = ( -0.5774  0.5774  0.5774 )  
               a(2) = (  0.5774 -0.5774  0.5774 )  
               a(3) = (  0.5774  0.5774 -0.5774 )  

     reciprocal axes: (cart. coord. in units 2 pi/alat)
               b(1) = ( -0.0000  0.8660  0.8660 )  
               b(2) = (  0.8660 -0.0000  0.8660 )  
               b(3) = (  0.8660  0.8660  0.0000 )  


     Atoms inside the unit cell: 

     Cartesian axes

     site n.  atom      mass           positions (alat units)
        1     Ca  40.0780   tau(    1) = (    0.00000    0.00000    0.00000  )
        2     H    1.0079   tau(    2) = (    0.28868    0.00000    0.57735  )
        3     H    1.0079   tau(    3) = (    0.28868    0.57735    0.00000  )
        4     H    1.0079   tau(    4) = (    0.57735    0.28868    0.00000  )
        5     H    1.0079   tau(    5) = (    0.00000    0.28868    0.57735  )
        6     H    1.0079   tau(    6) = (    0.00000    0.57735    0.28868  )
        7     H    1.0079   tau(    7) = (    0.57735    0.00000    0.28868  )

     Computing dynamical matrix for 
                    q = (   0.4330127   0.4330127   0.2165064 )
 
      4 Sym.Ops. (no q -> -q+G )


     G cutoff =  564.0682  (   3604 G-vectors)     FFT grid: ( 48, 48, 48)
     G cutoff =  188.0227  (    699 G-vectors)  smooth grid: ( 27, 27, 27)

     number of k points=  2320  Methfessel-Paxton smearing, width (Ry)=  0.0200

     PseudoPot. # 1 for Ca read from file:
     /work/home/mayuan/code/my_script/scripts_tests/out2/200.0/pp/ca_pbe_v1.uspp.F.UPF
     MD5 check sum: 403a4c14b9e4d4dfdc3024c9a3812218
     Pseudo is Ultrasoft + core correction, Zval = 10.0
     Generated by new atomic code, or converted to UPF format
     Using radial grid of  845 points,  6 beta functions with: 
                l(1) =   0
                l(2) =   0
                l(3) =   1
                l(4) =   1
                l(5) =   2
                l(6) =   2
     Q(r) pseudized with  8 coefficients,  rinner =    1.500   1.500   1.500
                                                       1.500   1.500

     PseudoPot. # 2 for H  read from file:
     /work/home/mayuan/code/my_script/scripts_tests/out2/200.0/pp/h_pbe_v1.uspp.F.UPF
     MD5 check sum: 3408e3ff4ec8b0a4e358431e7e038a48
     Pseudo is Ultrasoft, Zval =  1.0
     Generated by new atomic code, or converted to UPF format
     Using radial grid of  615 points,  2 beta functions with: 
                l(1) =   0
                l(2) =   0
     Q(r) pseudized with  8 coefficients,  rinner =    0.700

     Mode symmetry, C_2v (mm2)  point group:


     Atomic displacements:
     There are   21 irreducible representations

     Representation     1      1 modes -  To be done

     Representation     2      1 modes -  To be done

     Representation     3      1 modes -  To be done

     Representation     4      1 modes -  To be done

     Representation     5      1 modes -  To be done

     Representation     6      1 modes -  To be done

     Representation     7      1 modes -  To be done

     Representation     8      1 modes -  To be done

     Representation     9      1 modes -  To be done

     Representation    10      1 modes -  To be done

     Representation    11      1 modes -  To be done

     Representation    12      1 modes -  To be done

     Representation    13      1 modes -  To be done

     Representation    14      1 modes -  To be done

     Representation    15      1 modes -  To be done

     Representation    16      1 modes -  To be done

     Representation    17      1 modes -  To be done

     Representation    18      1 modes -  To be done

     Representation    19      1 modes -  To be done

     Representation    20      1 modes -  To be done

     Representation    21      1 modes -  To be done



     Alpha used in Ewald sum =   2.8000
     PHONON       :     28.66s CPU     34.06s WALL



     Representation #   1 mode #   1

     Self-consistent Calculation

      iter #   1 total cpu time :    41.4 secs   av.it.:   4.1
      thresh= 1.000E-02 alpha_mix =  0.700 |ddv_scf|^2 =  1.489E-06

      iter #   2 total cpu time :    54.3 secs   av.it.:   9.3
      thresh= 1.220E-04 alpha_mix =  0.700 |ddv_scf|^2 =  2.513E-06

      iter #   3 total cpu time :    67.8 secs   av.it.:   8.5
      thresh= 1.585E-04 alpha_mix =  0.700 |ddv_scf|^2 =  5.022E-09

      iter #   4 total cpu time :    82.9 secs   av.it.:   9.4
      thresh= 7.086E-06 alpha_mix =  0.700 |ddv_scf|^2 =  4.420E-10

      iter #   5 total cpu time :   100.3 secs   av.it.:   9.2
      thresh= 2.102E-06 alpha_mix =  0.700 |ddv_scf|^2 =  3.321E-12

      iter #   6 total cpu time :   118.9 secs   av.it.:   9.6
      thresh= 1.822E-07 alpha_mix =  0.700 |ddv_scf|^2 =  1.891E-13

      iter #   7 total cpu time :   135.0 secs   av.it.:   9.5
      thresh= 4.349E-08 alpha_mix =  0.700 |ddv_scf|^2 =  7.996E-15

      iter #   8 total cpu time :   149.0 secs   av.it.:   9.6
      thresh= 8.942E-09 alpha_mix =  0.700 |ddv_scf|^2 =  1.095E-15

      iter #   9 total cpu time :   163.1 secs   av.it.:   9.1
      thresh= 3.308E-09 alpha_mix =  0.700 |ddv_scf|^2 =  5.823E-16

      iter #  10 total cpu time :   177.0 secs   av.it.:   8.9
      thresh= 2.413E-09 alpha_mix =  0.700 |ddv_scf|^2 =  1.300E-17

     End of self-consistent calculation

     Convergence has been achieved 


     Representation #   2 mode #   2

     Self-consistent Calculation

      iter #   1 total cpu time :   187.3 secs   av.it.:   3.9
      thresh= 1.000E-02 alpha_mix =  0.700 |ddv_scf|^2 =  9.591E-07

      iter #   2 total cpu time :   199.1 secs   av.it.:   9.3
      thresh= 9.794E-05 alpha_mix =  0.700 |ddv_scf|^2 =  1.317E-06

      iter #   3 total cpu time :   213.0 secs   av.it.:   8.6
      thresh= 1.147E-04 alpha_mix =  0.700 |ddv_scf|^2 =  1.212E-08

      iter #   4 total cpu time :   226.9 secs   av.it.:   9.0
      thresh= 1.101E-05 alpha_mix =  0.700 |ddv_scf|^2 =  3.604E-10

      iter #   5 total cpu time :   243.7 secs   av.it.:   9.2
      thresh= 1.898E-06 alpha_mix =  0.700 |ddv_scf|^2 =  1.084E-11

      iter #   6 total cpu time :   258.8 secs   av.it.:   9.4
      thresh= 3.293E-07 alpha_mix =  0.700 |ddv_scf|^2 =  2.657E-13

      iter #   7 total cpu time :   274.6 secs   av.it.:   9.4
      thresh= 5.155E-08 alpha_mix =  0.700 |ddv_scf|^2 =  8.742E-15

      iter #   8 total cpu time :   291.7 secs   av.it.:   9.1
      thresh= 9.350E-09 alpha_mix =  0.700 |ddv_scf|^2 =  5.786E-16

      iter #   9 total cpu time :   309.9 secs   av.it.:   9.5
      thresh= 2.405E-09 alpha_mix =  0.700 |ddv_scf|^2 =  6.010E-16

      iter #  10 total cpu time :   327.9 secs   av.it.:   8.7
      thresh= 2.452E-09 alpha_mix =  0.700 |ddv_scf|^2 =  1.937E-17

     End of self-consistent calculation

     Convergence has been achieved 


     Representation #   3 mode #   3

     Self-consistent Calculation

      iter #   1 total cpu time :   341.4 secs   av.it.:   4.1
      thresh= 1.000E-02 alpha_mix =  0.700 |ddv_scf|^2 =  9.006E-07

      iter #   2 total cpu time :   355.9 secs   av.it.:   9.5
      thresh= 9.490E-05 alpha_mix =  0.700 |ddv_scf|^2 =  1.084E-06

      iter #   3 total cpu time :   368.7 secs   av.it.:   8.7
      thresh= 1.041E-04 alpha_mix =  0.700 |ddv_scf|^2 =  1.867E-08

      iter #   4 total cpu time :   383.1 secs   av.it.:   9.2
      thresh= 1.366E-05 alpha_mix =  0.700 |ddv_scf|^2 =  5.637E-10

      iter #   5 total cpu time :   398.7 secs   av.it.:   9.4
      thresh= 2.374E-06 alpha_mix =  0.700 |ddv_scf|^2 =  9.637E-12

      iter #   6 total cpu time :   410.7 secs   av.it.:   9.6
      thresh= 3.104E-07 alpha_mix =  0.700 |ddv_scf|^2 =  2.954E-13

      iter #   7 total cpu time :   427.8 secs   av.it.:   9.6
      thresh= 5.435E-08 alpha_mix =  0.700 |ddv_scf|^2 =  8.287E-15

      iter #   8 total cpu time :   442.2 secs   av.it.:   9.6
      thresh= 9.103E-09 alpha_mix =  0.700 |ddv_scf|^2 =  3.621E-16

      iter #   9 total cpu time :   456.9 secs   av.it.:   9.7
      thresh= 1.903E-09 alpha_mix =  0.700 |ddv_scf|^2 =  1.707E-16

      iter #  10 total cpu time :   472.6 secs   av.it.:   9.1
      thresh= 1.306E-09 alpha_mix =  0.700 |ddv_scf|^2 =  3.252E-17

     End of self-consistent calculation

     Convergence has been achieved 


     Representation #   4 mode #   4

     Self-consistent Calculation

      iter #   1 total cpu time :   485.3 secs   av.it.:   6.6
      thresh= 1.000E-02 alpha_mix =  0.700 |ddv_scf|^2 =  4.074E-05

      iter #   2 total cpu time :   497.3 secs   av.it.:   9.5
      thresh= 6.383E-04 alpha_mix =  0.700 |ddv_scf|^2 =  5.007E-05

      iter #   3 total cpu time :   511.2 secs   av.it.:   8.6
      thresh= 7.076E-04 alpha_mix =  0.700 |ddv_scf|^2 =  9.593E-07

      iter #   4 total cpu time :   524.9 secs   av.it.:   9.0
      thresh= 9.794E-05 alpha_mix =  0.700 |ddv_scf|^2 =  1.081E-08

      iter #   5 total cpu time :   538.2 secs   av.it.:   9.4
      thresh= 1.040E-05 alpha_mix =  0.700 |ddv_scf|^2 =  3.887E-10

      iter #   6 total cpu time :   551.3 secs   av.it.:   9.2
      thresh= 1.972E-06 alpha_mix =  0.700 |ddv_scf|^2 =  2.658E-12

      iter #   7 total cpu time :   564.8 secs   av.it.:   9.1
      thresh= 1.630E-07 alpha_mix =  0.700 |ddv_scf|^2 =  1.138E-13

      iter #   8 total cpu time :   578.7 secs   av.it.:   9.0
      thresh= 3.374E-08 alpha_mix =  0.700 |ddv_scf|^2 =  1.477E-15

      iter #   9 total cpu time :   595.3 secs   av.it.:   9.4
      thresh= 3.843E-09 alpha_mix =  0.700 |ddv_scf|^2 =  9.216E-17

     End of self-consistent calculation

     Convergence has been achieved 


     Representation #   5 mode #   5

     Self-consistent Calculation

      iter #   1 total cpu time :   608.8 secs   av.it.:   4.2
      thresh= 1.000E-02 alpha_mix =  0.700 |ddv_scf|^2 =  2.394E-06

      iter #   2 total cpu time :   621.0 secs   av.it.:   9.3
      thresh= 1.547E-04 alpha_mix =  0.700 |ddv_scf|^2 =  4.182E-06

      iter #   3 total cpu time :   632.0 secs   av.it.:   8.5
      thresh= 2.045E-04 alpha_mix =  0.700 |ddv_scf|^2 =  2.516E-09

      iter #   4 total cpu time :   646.9 secs   av.it.:   9.5
      thresh= 5.016E-06 alpha_mix =  0.700 |ddv_scf|^2 =  3.465E-10

      iter #   5 total cpu time :   660.1 secs   av.it.:   9.2
      thresh= 1.862E-06 alpha_mix =  0.700 |ddv_scf|^2 =  3.349E-12

      iter #   6 total cpu time :   672.2 secs   av.it.:   9.1
      thresh= 1.830E-07 alpha_mix =  0.700 |ddv_scf|^2 =  4.913E-14

      iter #   7 total cpu time :   684.3 secs   av.it.:   9.8
      thresh= 2.217E-08 alpha_mix =  0.700 |ddv_scf|^2 =  2.513E-15

      iter #   8 total cpu time :   699.2 secs   av.it.:   9.8
      thresh= 5.013E-09 alpha_mix =  0.700 |ddv_scf|^2 =  2.379E-16

      iter #   9 total cpu time :   712.1 secs   av.it.:   9.7
      thresh= 1.542E-09 alpha_mix =  0.700 |ddv_scf|^2 =  1.572E-16

      iter #  10 total cpu time :   726.5 secs   av.it.:   8.9
      thresh= 1.254E-09 alpha_mix =  0.700 |ddv_scf|^2 =  5.252E-18

     End of self-consistent calculation

     Convergence has been achieved 


     Representation #   6 mode #   6

     Self-consistent Calculation

      iter #   1 total cpu time :   738.2 secs   av.it.:   4.2
      thresh= 1.000E-02 alpha_mix =  0.700 |ddv_scf|^2 =  2.309E-06

      iter #   2 total cpu time :   748.6 secs   av.it.:   9.3
      thresh= 1.519E-04 alpha_mix =  0.700 |ddv_scf|^2 =  3.721E-06

      iter #   3 total cpu time :   763.7 secs   av.it.:   8.5
      thresh= 1.929E-04 alpha_mix =  0.700 |ddv_scf|^2 =  9.866E-09

      iter #   4 total cpu time :   781.7 secs   av.it.:   9.4
      thresh= 9.933E-06 alpha_mix =  0.700 |ddv_scf|^2 =  4.990E-10

      iter #   5 total cpu time :   795.3 secs   av.it.:   9.4
      thresh= 2.234E-06 alpha_mix =  0.700 |ddv_scf|^2 =  1.270E-11

      iter #   6 total cpu time :   810.5 secs   av.it.:   9.6
      thresh= 3.564E-07 alpha_mix =  0.700 |ddv_scf|^2 =  3.742E-13

      iter #   7 total cpu time :   825.1 secs   av.it.:   9.5
      thresh= 6.117E-08 alpha_mix =  0.700 |ddv_scf|^2 =  8.007E-15

      iter #   8 total cpu time :   837.9 secs   av.it.:   9.4
      thresh= 8.948E-09 alpha_mix =  0.700 |ddv_scf|^2 =  6.378E-16

      iter #   9 total cpu time :   854.9 secs   av.it.:   9.5
      thresh= 2.525E-09 alpha_mix =  0.700 |ddv_scf|^2 =  3.758E-16

      iter #  10 total cpu time :   870.4 secs   av.it.:   8.9
      thresh= 1.938E-09 alpha_mix =  0.700 |ddv_scf|^2 =  4.622E-17

     End of self-consistent calculation

     Convergence has been achieved 


     Representation #   7 mode #   7

     Self-consistent Calculation

      iter #   1 total cpu time :   882.4 secs   av.it.:   3.2
      thresh= 1.000E-02 alpha_mix =  0.700 |ddv_scf|^2 =  8.901E-09

      iter #   2 total cpu time :   896.8 secs   av.it.:   9.1
      thresh= 9.435E-06 alpha_mix =  0.700 |ddv_scf|^2 =  5.397E-10

      iter #   3 total cpu time :   908.9 secs   av.it.:   8.7
      thresh= 2.323E-06 alpha_mix =  0.700 |ddv_scf|^2 =  6.323E-12

      iter #   4 total cpu time :   925.8 secs   av.it.:   8.4
      thresh= 2.515E-07 alpha_mix =  0.700 |ddv_scf|^2 =  8.708E-14

      iter #   5 total cpu time :   939.2 secs   av.it.:   8.9
      thresh= 2.951E-08 alpha_mix =  0.700 |ddv_scf|^2 =  9.265E-16

      iter #   6 total cpu time :   950.2 secs   av.it.:   8.9
      thresh= 3.044E-09 alpha_mix =  0.700 |ddv_scf|^2 =  1.323E-17

     End of self-consistent calculation

     Convergence has been achieved 


     Representation #   8 mode #   8

     Self-consistent Calculation

      iter #   1 total cpu time :   962.5 secs   av.it.:   3.0
      thresh= 1.000E-02 alpha_mix =  0.700 |ddv_scf|^2 =  7.886E-09

      iter #   2 total cpu time :   975.0 secs   av.it.:   9.1
      thresh= 8.880E-06 alpha_mix =  0.700 |ddv_scf|^2 =  4.083E-10

      iter #   3 total cpu time :   986.1 secs   av.it.:   8.3
      thresh= 2.021E-06 alpha_mix =  0.700 |ddv_scf|^2 =  1.173E-11

      iter #   4 total cpu time :  1000.5 secs   av.it.:   8.1
      thresh= 3.425E-07 alpha_mix =  0.700 |ddv_scf|^2 =  4.228E-14

      iter #   5 total cpu time :  1013.6 secs   av.it.:   8.9
      thresh= 2.056E-08 alpha_mix =  0.700 |ddv_scf|^2 =  8.481E-16

      iter #   6 total cpu time :  1028.3 secs   av.it.:   8.7
      thresh= 2.912E-09 alpha_mix =  0.700 |ddv_scf|^2 =  2.139E-18

     End of self-consistent calculation

     Convergence has been achieved 


     Representation #   9 mode #   9

     Self-consistent Calculation

      iter #   1 total cpu time :  1041.1 secs   av.it.:   3.7
      thresh= 1.000E-02 alpha_mix =  0.700 |ddv_scf|^2 =  3.293E-08

      iter #   2 total cpu time :  1052.1 secs   av.it.:   9.0
      thresh= 1.815E-05 alpha_mix =  0.700 |ddv_scf|^2 =  5.810E-10

      iter #   3 total cpu time :  1067.6 secs   av.it.:   8.8
      thresh= 2.410E-06 alpha_mix =  0.700 |ddv_scf|^2 =  3.384E-11

      iter #   4 total cpu time :  1084.2 secs   av.it.:   8.8
      thresh= 5.817E-07 alpha_mix =  0.700 |ddv_scf|^2 =  1.742E-13

      iter #   5 total cpu time :  1094.9 secs   av.it.:   8.9
      thresh= 4.173E-08 alpha_mix =  0.700 |ddv_scf|^2 =  1.989E-15

      iter #   6 total cpu time :  1109.9 secs   av.it.:   9.2
      thresh= 4.460E-09 alpha_mix =  0.700 |ddv_scf|^2 =  1.432E-17

     End of self-consistent calculation

     Convergence has been achieved 


     Representation #  10 mode #  10

     Self-consistent Calculation

      iter #   1 total cpu time :  1122.3 secs   av.it.:   3.7
      thresh= 1.000E-02 alpha_mix =  0.700 |ddv_scf|^2 =  2.096E-08

      iter #   2 total cpu time :  1134.1 secs   av.it.:   9.0
      thresh= 1.448E-05 alpha_mix =  0.700 |ddv_scf|^2 =  8.225E-10

      iter #   3 total cpu time :  1149.1 secs   av.it.:   9.0
      thresh= 2.868E-06 alpha_mix =  0.700 |ddv_scf|^2 =  1.241E-11

      iter #   4 total cpu time :  1162.5 secs   av.it.:   8.5
      thresh= 3.522E-07 alpha_mix =  0.700 |ddv_scf|^2 =  9.791E-14

      iter #   5 total cpu time :  1174.6 secs   av.it.:   8.7
      thresh= 3.129E-08 alpha_mix =  0.700 |ddv_scf|^2 =  1.526E-15

      iter #   6 total cpu time :  1187.7 secs   av.it.:   8.9
      thresh= 3.907E-09 alpha_mix =  0.700 |ddv_scf|^2 =  2.587E-17

     End of self-consistent calculation

     Convergence has been achieved 


     Representation #  11 mode #  11

     Self-consistent Calculation

      iter #   1 total cpu time :  1198.8 secs   av.it.:   3.2
      thresh= 1.000E-02 alpha_mix =  0.700 |ddv_scf|^2 =  1.355E-08

      iter #   2 total cpu time :  1211.4 secs   av.it.:   9.1
      thresh= 1.164E-05 alpha_mix =  0.700 |ddv_scf|^2 =  5.101E-10

      iter #   3 total cpu time :  1223.8 secs   av.it.:   8.7
      thresh= 2.258E-06 alpha_mix =  0.700 |ddv_scf|^2 =  1.647E-11

      iter #   4 total cpu time :  1238.1 secs   av.it.:   8.4
      thresh= 4.058E-07 alpha_mix =  0.700 |ddv_scf|^2 =  1.225E-13

      iter #   5 total cpu time :  1254.9 secs   av.it.:   8.8
      thresh= 3.500E-08 alpha_mix =  0.700 |ddv_scf|^2 =  1.188E-15

      iter #   6 total cpu time :  1268.4 secs   av.it.:   9.1
      thresh= 3.447E-09 alpha_mix =  0.700 |ddv_scf|^2 =  1.297E-17

     End of self-consistent calculation

     Convergence has been achieved 


     Representation #  12 mode #  12

     Self-consistent Calculation

      iter #   1 total cpu time :  1279.4 secs   av.it.:   3.8
      thresh= 1.000E-02 alpha_mix =  0.700 |ddv_scf|^2 =  1.326E-07

      iter #   2 total cpu time :  1293.1 secs   av.it.:   9.4
      thresh= 3.641E-05 alpha_mix =  0.700 |ddv_scf|^2 =  4.344E-08

      iter #   3 total cpu time :  1306.6 secs   av.it.:   8.9
      thresh= 2.084E-05 alpha_mix =  0.700 |ddv_scf|^2 =  3.730E-10

      iter #   4 total cpu time :  1323.6 secs   av.it.:   9.2
      thresh= 1.931E-06 alpha_mix =  0.700 |ddv_scf|^2 =  5.937E-12

      iter #   5 total cpu time :  1339.4 secs   av.it.:   9.0
      thresh= 2.437E-07 alpha_mix =  0.700 |ddv_scf|^2 =  1.564E-13

      iter #   6 total cpu time :  1351.8 secs   av.it.:   9.4
      thresh= 3.954E-08 alpha_mix =  0.700 |ddv_scf|^2 =  2.125E-15

      iter #   7 total cpu time :  1366.7 secs   av.it.:   9.7
      thresh= 4.609E-09 alpha_mix =  0.700 |ddv_scf|^2 =  9.947E-17

     End of self-consistent calculation

     Convergence has been achieved 


     Representation #  13 mode #  13

     Self-consistent Calculation

      iter #   1 total cpu time :  1381.4 secs   av.it.:   3.9
      thresh= 1.000E-02 alpha_mix =  0.700 |ddv_scf|^2 =  2.224E-07

      iter #   2 total cpu time :  1395.3 secs   av.it.:   9.4
      thresh= 4.716E-05 alpha_mix =  0.700 |ddv_scf|^2 =  7.400E-08

      iter #   3 total cpu time :  1407.9 secs   av.it.:   8.9
      thresh= 2.720E-05 alpha_mix =  0.700 |ddv_scf|^2 =  4.249E-10

      iter #   4 total cpu time :  1424.0 secs   av.it.:   9.3
      thresh= 2.061E-06 alpha_mix =  0.700 |ddv_scf|^2 =  7.887E-12

      iter #   5 total cpu time :  1440.4 secs   av.it.:   9.4
      thresh= 2.808E-07 alpha_mix =  0.700 |ddv_scf|^2 =  3.052E-13

      iter #   6 total cpu time :  1457.6 secs   av.it.:   9.4
      thresh= 5.524E-08 alpha_mix =  0.700 |ddv_scf|^2 =  4.684E-15

      iter #   7 total cpu time :  1475.1 secs   av.it.:   9.6
      thresh= 6.844E-09 alpha_mix =  0.700 |ddv_scf|^2 =  1.095E-16

      iter #   8 total cpu time :  1492.6 secs   av.it.:   9.5
      thresh= 1.047E-09 alpha_mix =  0.700 |ddv_scf|^2 =  6.988E-18

     End of self-consistent calculation

     Convergence has been achieved 


     Representation #  14 mode #  14

     Self-consistent Calculation

      iter #   1 total cpu time :  1505.6 secs   av.it.:   3.9
      thresh= 1.000E-02 alpha_mix =  0.700 |ddv_scf|^2 =  3.800E-07

      iter #   2 total cpu time :  1518.1 secs   av.it.:   9.2
      thresh= 6.164E-05 alpha_mix =  0.700 |ddv_scf|^2 =  1.364E-07

      iter #   3 total cpu time :  1533.6 secs   av.it.:   8.9
      thresh= 3.693E-05 alpha_mix =  0.700 |ddv_scf|^2 =  4.005E-10

      iter #   4 total cpu time :  1546.7 secs   av.it.:   9.0
      thresh= 2.001E-06 alpha_mix =  0.700 |ddv_scf|^2 =  1.154E-11

      iter #   5 total cpu time :  1560.7 secs   av.it.:   8.9
      thresh= 3.397E-07 alpha_mix =  0.700 |ddv_scf|^2 =  2.617E-13

      iter #   6 total cpu time :  1577.1 secs   av.it.:   9.2
      thresh= 5.115E-08 alpha_mix =  0.700 |ddv_scf|^2 =  8.378E-15

      iter #   7 total cpu time :  1593.4 secs   av.it.:   9.4
      thresh= 9.153E-09 alpha_mix =  0.700 |ddv_scf|^2 =  2.388E-16

      iter #   8 total cpu time :  1610.1 secs   av.it.:   9.5
      thresh= 1.545E-09 alpha_mix =  0.700 |ddv_scf|^2 =  8.904E-18

     End of self-consistent calculation

     Convergence has been achieved 


     Representation #  15 mode #  15

     Self-consistent Calculation

      iter #   1 total cpu time :  1623.1 secs   av.it.:   6.5
      thresh= 1.000E-02 alpha_mix =  0.700 |ddv_scf|^2 =  1.793E-05

      iter #   2 total cpu time :  1634.8 secs   av.it.:   9.5
      thresh= 4.234E-04 alpha_mix =  0.700 |ddv_scf|^2 =  6.584E-06

      iter #   3 total cpu time :  1647.3 secs   av.it.:   8.9
      thresh= 2.566E-04 alpha_mix =  0.700 |ddv_scf|^2 =  1.677E-08

      iter #   4 total cpu time :  1660.2 secs   av.it.:   9.5
      thresh= 1.295E-05 alpha_mix =  0.700 |ddv_scf|^2 =  7.466E-10

      iter #   5 total cpu time :  1673.8 secs   av.it.:   9.0
      thresh= 2.732E-06 alpha_mix =  0.700 |ddv_scf|^2 =  2.637E-12

      iter #   6 total cpu time :  1686.5 secs   av.it.:   9.0
      thresh= 1.624E-07 alpha_mix =  0.700 |ddv_scf|^2 =  2.831E-14

      iter #   7 total cpu time :  1699.3 secs   av.it.:   8.8
      thresh= 1.683E-08 alpha_mix =  0.700 |ddv_scf|^2 =  7.672E-16

      iter #   8 total cpu time :  1712.6 secs   av.it.:   9.1
      thresh= 2.770E-09 alpha_mix =  0.700 |ddv_scf|^2 =  1.602E-17

     End of self-consistent calculation

     Convergence has been achieved 


     Representation #  16 mode #  16

     Self-consistent Calculation

      iter #   1 total cpu time :  1725.1 secs   av.it.:   3.9
      thresh= 1.000E-02 alpha_mix =  0.700 |ddv_scf|^2 =  2.542E-07

      iter #   2 total cpu time :  1739.4 secs   av.it.:   9.3
      thresh= 5.042E-05 alpha_mix =  0.700 |ddv_scf|^2 =  7.599E-08

      iter #   3 total cpu time :  1755.0 secs   av.it.:   8.9
      thresh= 2.757E-05 alpha_mix =  0.700 |ddv_scf|^2 =  6.019E-10

      iter #   4 total cpu time :  1770.6 secs   av.it.:   9.2
      thresh= 2.453E-06 alpha_mix =  0.700 |ddv_scf|^2 =  1.671E-11

      iter #   5 total cpu time :  1786.4 secs   av.it.:   9.2
      thresh= 4.087E-07 alpha_mix =  0.700 |ddv_scf|^2 =  1.637E-13

      iter #   6 total cpu time :  1801.8 secs   av.it.:   9.6
      thresh= 4.046E-08 alpha_mix =  0.700 |ddv_scf|^2 =  9.667E-15

      iter #   7 total cpu time :  1815.4 secs   av.it.:   9.4
      thresh= 9.832E-09 alpha_mix =  0.700 |ddv_scf|^2 =  3.693E-16

      iter #   8 total cpu time :  1831.8 secs   av.it.:   9.5
      thresh= 1.922E-09 alpha_mix =  0.700 |ddv_scf|^2 =  5.604E-18

     End of self-consistent calculation

     Convergence has been achieved 


     Representation #  17 mode #  17

     Self-consistent Calculation

      iter #   1 total cpu time :  1844.8 secs   av.it.:   3.9
      thresh= 1.000E-02 alpha_mix =  0.700 |ddv_scf|^2 =  1.086E-06

      iter #   2 total cpu time :  1857.0 secs   av.it.:   9.1
      thresh= 1.042E-04 alpha_mix =  0.700 |ddv_scf|^2 =  2.389E-06

      iter #   3 total cpu time :  1869.9 secs   av.it.:   8.1
      thresh= 1.546E-04 alpha_mix =  0.700 |ddv_scf|^2 =  4.758E-10

      iter #   4 total cpu time :  1883.0 secs   av.it.:   9.4
      thresh= 2.181E-06 alpha_mix =  0.700 |ddv_scf|^2 =  1.628E-11

      iter #   5 total cpu time :  1897.9 secs   av.it.:   9.5
      thresh= 4.034E-07 alpha_mix =  0.700 |ddv_scf|^2 =  8.348E-13

      iter #   6 total cpu time :  1914.2 secs   av.it.:   9.3
      thresh= 9.137E-08 alpha_mix =  0.700 |ddv_scf|^2 =  7.797E-15

      iter #   7 total cpu time :  1930.3 secs   av.it.:   9.5
      thresh= 8.830E-09 alpha_mix =  0.700 |ddv_scf|^2 =  1.094E-16

      iter #   8 total cpu time :  1947.4 secs   av.it.:   9.5
      thresh= 1.046E-09 alpha_mix =  0.700 |ddv_scf|^2 =  6.562E-17

     End of self-consistent calculation

     Convergence has been achieved 


     Representation #  18 mode #  18

     Self-consistent Calculation

      iter #   1 total cpu time :  1963.8 secs   av.it.:   6.8
      thresh= 1.000E-02 alpha_mix =  0.700 |ddv_scf|^2 =  1.857E-04

      iter #   2 total cpu time :  1978.1 secs   av.it.:   9.2
      thresh= 1.363E-03 alpha_mix =  0.700 |ddv_scf|^2 =  4.208E-04

      iter #   3 total cpu time :  1993.9 secs   av.it.:   8.1
      thresh= 2.051E-03 alpha_mix =  0.700 |ddv_scf|^2 =  1.787E-08

      iter #   4 total cpu time :  2010.7 secs   av.it.:   9.8
      thresh= 1.337E-05 alpha_mix =  0.700 |ddv_scf|^2 =  3.228E-09

      iter #   5 total cpu time :  2029.5 secs   av.it.:   8.7
      thresh= 5.681E-06 alpha_mix =  0.700 |ddv_scf|^2 =  1.196E-11

      iter #   6 total cpu time :  2047.6 secs   av.it.:   9.2
      thresh= 3.459E-07 alpha_mix =  0.700 |ddv_scf|^2 =  5.097E-13

      iter #   7 total cpu time :  2063.5 secs   av.it.:   8.7
      thresh= 7.139E-08 alpha_mix =  0.700 |ddv_scf|^2 =  1.209E-15

      iter #   8 total cpu time :  2083.1 secs   av.it.:   9.4
      thresh= 3.477E-09 alpha_mix =  0.700 |ddv_scf|^2 =  8.078E-17

     End of self-consistent calculation

     Convergence has been achieved 


     Representation #  19 mode #  19

     Self-consistent Calculation

      iter #   1 total cpu time :  2094.7 secs   av.it.:   3.7
      thresh= 1.000E-02 alpha_mix =  0.700 |ddv_scf|^2 =  4.746E-07

      iter #   2 total cpu time :  2109.0 secs   av.it.:   9.1
      thresh= 6.889E-05 alpha_mix =  0.700 |ddv_scf|^2 =  1.046E-06

      iter #   3 total cpu time :  2123.4 secs   av.it.:   8.1
      thresh= 1.023E-04 alpha_mix =  0.700 |ddv_scf|^2 =  3.483E-10

      iter #   4 total cpu time :  2138.4 secs   av.it.:   8.9
      thresh= 1.866E-06 alpha_mix =  0.700 |ddv_scf|^2 =  4.953E-12

      iter #   5 total cpu time :  2156.0 secs   av.it.:   9.4
      thresh= 2.226E-07 alpha_mix =  0.700 |ddv_scf|^2 =  3.861E-13

      iter #   6 total cpu time :  2172.4 secs   av.it.:   9.1
      thresh= 6.214E-08 alpha_mix =  0.700 |ddv_scf|^2 =  3.274E-15

      iter #   7 total cpu time :  2187.1 secs   av.it.:   9.0
      thresh= 5.722E-09 alpha_mix =  0.700 |ddv_scf|^2 =  1.270E-16

      iter #   8 total cpu time :  2203.1 secs   av.it.:   9.1
      thresh= 1.127E-09 alpha_mix =  0.700 |ddv_scf|^2 =  6.276E-18

     End of self-consistent calculation

     Convergence has been achieved 


     Representation #  20 mode #  20

     Self-consistent Calculation

      iter #   1 total cpu time :  2216.6 secs   av.it.:   3.9
      thresh= 1.000E-02 alpha_mix =  0.700 |ddv_scf|^2 =  1.025E-06

      iter #   2 total cpu time :  2229.8 secs   av.it.:   9.2
      thresh= 1.013E-04 alpha_mix =  0.700 |ddv_scf|^2 =  2.259E-06

      iter #   3 total cpu time :  2243.5 secs   av.it.:   8.2
      thresh= 1.503E-04 alpha_mix =  0.700 |ddv_scf|^2 =  5.296E-10

      iter #   4 total cpu time :  2257.8 secs   av.it.:   9.4
      thresh= 2.301E-06 alpha_mix =  0.700 |ddv_scf|^2 =  9.910E-12

      iter #   5 total cpu time :  2273.4 secs   av.it.:   9.5
      thresh= 3.148E-07 alpha_mix =  0.700 |ddv_scf|^2 =  3.521E-13

      iter #   6 total cpu time :  2287.8 secs   av.it.:   9.5
      thresh= 5.933E-08 alpha_mix =  0.700 |ddv_scf|^2 =  6.329E-15

      iter #   7 total cpu time :  2302.1 secs   av.it.:   9.3
      thresh= 7.956E-09 alpha_mix =  0.700 |ddv_scf|^2 =  8.226E-17

     End of self-consistent calculation

     Convergence has been achieved 


     Representation #  21 mode #  21

     Self-consistent Calculation

      iter #   1 total cpu time :  2318.4 secs   av.it.:   4.1
      thresh= 1.000E-02 alpha_mix =  0.700 |ddv_scf|^2 =  1.868E-06

      iter #   2 total cpu time :  2332.6 secs   av.it.:   9.1
      thresh= 1.367E-04 alpha_mix =  0.700 |ddv_scf|^2 =  4.083E-06

      iter #   3 total cpu time :  2345.2 secs   av.it.:   8.2
      thresh= 2.021E-04 alpha_mix =  0.700 |ddv_scf|^2 =  9.163E-10

      iter #   4 total cpu time :  2361.8 secs   av.it.:   8.8
      thresh= 3.027E-06 alpha_mix =  0.700 |ddv_scf|^2 =  1.221E-11

      iter #   5 total cpu time :  2378.0 secs   av.it.:   9.0
      thresh= 3.494E-07 alpha_mix =  0.700 |ddv_scf|^2 =  3.672E-13

      iter #   6 total cpu time :  2393.6 secs   av.it.:   9.1
      thresh= 6.060E-08 alpha_mix =  0.700 |ddv_scf|^2 =  3.667E-15

      iter #   7 total cpu time :  2411.4 secs   av.it.:   9.7
      thresh= 6.055E-09 alpha_mix =  0.700 |ddv_scf|^2 =  1.928E-16

      iter #   8 total cpu time :  2426.9 secs   av.it.:   9.3
      thresh= 1.389E-09 alpha_mix =  0.700 |ddv_scf|^2 =  2.235E-16

      iter #   9 total cpu time :  2438.6 secs   av.it.:   8.6
      thresh= 1.495E-09 alpha_mix =  0.700 |ddv_scf|^2 =  1.155E-17

     End of self-consistent calculation

     Convergence has been achieved 
 
     Number of q in the star =   12
     List of q in the star:
          1   0.433012700   0.433012700   0.216506400
          2   0.433012700   0.433012700  -0.216506400
          3   0.433012700  -0.433012700   0.216506400
          4   0.216506400  -0.433012700   0.433012700
          5  -0.216506400  -0.433012700  -0.433012700
          6  -0.433012700   0.216506400   0.433012700
          7  -0.433012700  -0.216506400  -0.433012700
          8   0.433012700   0.216506400   0.433012700
          9   0.433012700  -0.216506400  -0.433012700
         10   0.216506400   0.433012700   0.433012700
         11  -0.216506400  -0.433012700   0.433012700
         12  -0.433012700   0.433012700  -0.216506400

     Diagonalizing the dynamical matrix

     q = (    0.433012700   0.433012700   0.216506400 ) 

 **************************************************************************
     freq (    1) =       9.969916 [THz] =     332.560589 [cm-1]
     freq (    2) =      10.189006 [THz] =     339.868647 [cm-1]
     freq (    3) =      12.366276 [THz] =     412.494557 [cm-1]
     freq (    4) =      28.219686 [THz] =     941.307392 [cm-1]
     freq (    5) =      31.772366 [THz] =    1059.812054 [cm-1]
     freq (    6) =      31.964214 [THz] =    1066.211404 [cm-1]
     freq (    7) =      34.780530 [THz] =    1160.153605 [cm-1]
     freq (    8) =      35.039090 [THz] =    1168.778237 [cm-1]
     freq (    9) =      38.021765 [THz] =    1268.269548 [cm-1]
     freq (   10) =      39.348912 [THz] =    1312.538421 [cm-1]
     freq (   11) =      40.483322 [THz] =    1350.378272 [cm-1]
     freq (   12) =      41.789835 [THz] =    1393.958837 [cm-1]
     freq (   13) =      42.065523 [THz] =    1403.154819 [cm-1]
     freq (   14) =      43.768194 [THz] =    1459.949793 [cm-1]
     freq (   15) =      44.232382 [THz] =    1475.433451 [cm-1]
     freq (   16) =      45.880968 [THz] =    1530.424354 [cm-1]
     freq (   17) =      47.521593 [THz] =    1585.149717 [cm-1]
     freq (   18) =      47.618568 [THz] =    1588.384462 [cm-1]
     freq (   19) =      49.599137 [THz] =    1654.449132 [cm-1]
     freq (   20) =      49.937649 [THz] =    1665.740659 [cm-1]
     freq (   21) =      54.804852 [THz] =    1828.093100 [cm-1]
 **************************************************************************

     Mode symmetry, C_2v (mm2)  point group:

     freq (   1-   1) =        332.6  [cm-1]   --> A_1  D_1  S_1      
     freq (   2-   2) =        339.9  [cm-1]   --> B_1  D_3  S_3      
     freq (   3-   3) =        412.5  [cm-1]   --> B_2  D_4  S_4      
     freq (   4-   4) =        941.3  [cm-1]   --> A_1  D_1  S_1      
     freq (   5-   5) =       1059.8  [cm-1]   --> A_2  D_2  S_2      
     freq (   6-   6) =       1066.2  [cm-1]   --> B_2  D_4  S_4      
     freq (   7-   7) =       1160.2  [cm-1]   --> B_1  D_3  S_3      
     freq (   8-   8) =       1168.8  [cm-1]   --> A_1  D_1  S_1      
     freq (   9-   9) =       1268.3  [cm-1]   --> B_2  D_4  S_4      
     freq (  10-  10) =       1312.5  [cm-1]   --> A_2  D_2  S_2      
     freq (  11-  11) =       1350.4  [cm-1]   --> B_1  D_3  S_3      
     freq (  12-  12) =       1394.0  [cm-1]   --> B_2  D_4  S_4      
     freq (  13-  13) =       1403.2  [cm-1]   --> A_1  D_1  S_1      
     freq (  14-  14) =       1459.9  [cm-1]   --> A_2  D_2  S_2      
     freq (  15-  15) =       1475.4  [cm-1]   --> A_1  D_1  S_1      
     freq (  16-  16) =       1530.4  [cm-1]   --> A_2  D_2  S_2      
     freq (  17-  17) =       1585.1  [cm-1]   --> A_2  D_2  S_2      
     freq (  18-  18) =       1588.4  [cm-1]   --> B_1  D_3  S_3      
     freq (  19-  19) =       1654.4  [cm-1]   --> B_2  D_4  S_4      
     freq (  20-  20) =       1665.7  [cm-1]   --> A_1  D_1  S_1      
     freq (  21-  21) =       1828.1  [cm-1]   --> B_1  D_3  S_3      
     electron-phonon interaction  ...

     Gaussian Broadening:   0.005 Ry, ngauss=   0
     DOS =  1.900675 states/spin/Ry/Unit Cell at Ef= 17.155196 eV
     lambda(    1)=  0.1103   gamma=   19.90 GHz
     lambda(    2)=  0.0106   gamma=    1.99 GHz
     lambda(    3)=  0.0096   gamma=    2.66 GHz
     lambda(    4)=  0.6653   gamma=  961.69 GHz
     lambda(    5)=  0.0309   gamma=   56.64 GHz
     lambda(    6)=  0.1224   gamma=  226.97 GHz
     lambda(    7)=  0.0799   gamma=  175.32 GHz
     lambda(    8)=  0.3454   gamma=  769.62 GHz
     lambda(    9)=  0.0918   gamma=  240.87 GHz
     lambda(   10)=  0.0083   gamma=   23.26 GHz
     lambda(   11)=  0.0028   gamma=    8.26 GHz
     lambda(   12)=  0.0664   gamma=  210.42 GHz
     lambda(   13)=  0.0014   gamma=    4.60 GHz
     lambda(   14)=  0.0004   gamma=    1.48 GHz
     lambda(   15)=  0.0116   gamma=   41.14 GHz
     lambda(   16)=  0.0063   gamma=   24.21 GHz
     lambda(   17)=  0.0030   gamma=   12.12 GHz
     lambda(   18)=  0.0046   gamma=   18.80 GHz
     lambda(   19)=  0.0037   gamma=   16.34 GHz
     lambda(   20)=  0.0159   gamma=   72.07 GHz
     lambda(   21)=  0.0018   gamma=   10.06 GHz
     Gaussian Broadening:   0.010 Ry, ngauss=   0
     DOS =  2.130656 states/spin/Ry/Unit Cell at Ef= 17.149400 eV
     lambda(    1)=  0.1075   gamma=   21.74 GHz
     lambda(    2)=  0.0229   gamma=    4.84 GHz
     lambda(    3)=  0.0226   gamma=    7.05 GHz
     lambda(    4)=  0.7492   gamma= 1213.91 GHz
     lambda(    5)=  0.2546   gamma=  522.97 GHz
     lambda(    6)=  0.2207   gamma=  458.81 GHz
     lambda(    7)=  0.1664   gamma=  409.65 GHz
     lambda(    8)=  0.3323   gamma=  830.18 GHz
     lambda(    9)=  0.1185   gamma=  348.55 GHz
     lambda(   10)=  0.0299   gamma=   94.21 GHz
     lambda(   11)=  0.0088   gamma=   29.35 GHz
     lambda(   12)=  0.0844   gamma=  299.93 GHz
     lambda(   13)=  0.0217   gamma=   78.02 GHz
     lambda(   14)=  0.0044   gamma=   17.06 GHz
     lambda(   15)=  0.0550   gamma=  218.89 GHz
     lambda(   16)=  0.0141   gamma=   60.29 GHz
     lambda(   17)=  0.0105   gamma=   48.46 GHz
     lambda(   18)=  0.0121   gamma=   55.65 GHz
     lambda(   19)=  0.0195   gamma=   97.58 GHz
     lambda(   20)=  0.0246   gamma=  124.90 GHz
     lambda(   21)=  0.0087   gamma=   52.99 GHz
     Gaussian Broadening:   0.015 Ry, ngauss=   0
     DOS =  2.235086 states/spin/Ry/Unit Cell at Ef= 17.146382 eV
     lambda(    1)=  0.0969   gamma=   20.55 GHz
     lambda(    2)=  0.0254   gamma=    5.62 GHz
     lambda(    3)=  0.0296   gamma=    9.66 GHz
     lambda(    4)=  0.7059   gamma= 1199.80 GHz
     lambda(    5)=  0.3276   gamma=  705.76 GHz
     lambda(    6)=  0.2446   gamma=  533.42 GHz
     lambda(    7)=  0.1943   gamma=  501.70 GHz
     lambda(    8)=  0.2926   gamma=  766.70 GHz
     lambda(    9)=  0.1158   gamma=  357.22 GHz
     lambda(   10)=  0.0363   gamma=  120.03 GHz
     lambda(   11)=  0.0110   gamma=   38.63 GHz
     lambda(   12)=  0.0813   gamma=  302.93 GHz
     lambda(   13)=  0.0345   gamma=  130.27 GHz
     lambda(   14)=  0.0059   gamma=   24.03 GHz
     lambda(   15)=  0.0844   gamma=  352.45 GHz
     lambda(   16)=  0.0161   gamma=   72.41 GHz
     lambda(   17)=  0.0130   gamma=   62.85 GHz
     lambda(   18)=  0.0148   gamma=   71.73 GHz
     lambda(   19)=  0.0234   gamma=  122.83 GHz
     lambda(   20)=  0.0265   gamma=  141.13 GHz
     lambda(   21)=  0.0111   gamma=   71.42 GHz
     Gaussian Broadening:   0.020 Ry, ngauss=   0
     DOS =  2.290454 states/spin/Ry/Unit Cell at Ef= 17.145317 eV
     lambda(    1)=  0.0906   gamma=   19.70 GHz
     lambda(    2)=  0.0256   gamma=    5.81 GHz
     lambda(    3)=  0.0322   gamma=   10.76 GHz
     lambda(    4)=  0.6730   gamma= 1172.31 GHz
     lambda(    5)=  0.3379   gamma=  745.98 GHz
     lambda(    6)=  0.2404   gamma=  537.25 GHz
     lambda(    7)=  0.2031   gamma=  537.30 GHz
     lambda(    8)=  0.2822   gamma=  757.75 GHz
     lambda(    9)=  0.1116   gamma=  352.92 GHz
     lambda(   10)=  0.0375   gamma=  127.08 GHz
     lambda(   11)=  0.0115   gamma=   41.24 GHz
     lambda(   12)=  0.0776   gamma=  296.25 GHz
     lambda(   13)=  0.0351   gamma=  135.69 GHz
     lambda(   14)=  0.0060   gamma=   25.18 GHz
     lambda(   15)=  0.0839   gamma=  359.03 GHz
     lambda(   16)=  0.0164   gamma=   75.55 GHz
     lambda(   17)=  0.0136   gamma=   67.26 GHz
     lambda(   18)=  0.0157   gamma=   78.03 GHz
     lambda(   19)=  0.0230   gamma=  123.60 GHz
     lambda(   20)=  0.0264   gamma=  144.26 GHz
     lambda(   21)=  0.0116   gamma=   76.16 GHz
     Gaussian Broadening:   0.025 Ry, ngauss=   0
     DOS =  2.332190 states/spin/Ry/Unit Cell at Ef= 17.144758 eV
     lambda(    1)=  0.0882   gamma=   19.51 GHz
     lambda(    2)=  0.0253   gamma=    5.85 GHz
     lambda(    3)=  0.0332   gamma=   11.30 GHz
     lambda(    4)=  0.6571   gamma= 1165.46 GHz
     lambda(    5)=  0.3357   gamma=  754.67 GHz
     lambda(    6)=  0.2344   gamma=  533.35 GHz
     lambda(    7)=  0.2075   gamma=  558.89 GHz
     lambda(    8)=  0.2786   gamma=  761.78 GHz
     lambda(    9)=  0.1096   gamma=  353.02 GHz
     lambda(   10)=  0.0379   gamma=  130.70 GHz
     lambda(   11)=  0.0117   gamma=   42.88 GHz
     lambda(   12)=  0.0754   gamma=  293.28 GHz
     lambda(   13)=  0.0341   gamma=  134.56 GHz
     lambda(   14)=  0.0059   gamma=   25.15 GHz
     lambda(   15)=  0.0801   gamma=  349.13 GHz
     lambda(   16)=  0.0164   gamma=   76.90 GHz
     lambda(   17)=  0.0138   gamma=   69.24 GHz
     lambda(   18)=  0.0162   gamma=   81.66 GHz
     lambda(   19)=  0.0222   gamma=  121.50 GHz
     lambda(   20)=  0.0264   gamma=  146.80 GHz
     lambda(   21)=  0.0118   gamma=   79.23 GHz
     Gaussian Broadening:   0.030 Ry, ngauss=   0
     DOS =  2.360595 states/spin/Ry/Unit Cell at Ef= 17.144134 eV
     lambda(    1)=  0.0876   gamma=   19.64 GHz
     lambda(    2)=  0.0251   gamma=    5.88 GHz
     lambda(    3)=  0.0335   gamma=   11.53 GHz
     lambda(    4)=  0.6530   gamma= 1172.21 GHz
     lambda(    5)=  0.3328   gamma=  757.43 GHz
     lambda(    6)=  0.2291   gamma=  527.57 GHz
     lambda(    7)=  0.2103   gamma=  573.34 GHz
     lambda(    8)=  0.2760   gamma=  763.85 GHz
     lambda(    9)=  0.1088   gamma=  354.62 GHz
     lambda(   10)=  0.0380   gamma=  132.67 GHz
     lambda(   11)=  0.0121   gamma=   44.80 GHz
     lambda(   12)=  0.0739   gamma=  291.01 GHz
     lambda(   13)=  0.0338   gamma=  134.73 GHz
     lambda(   14)=  0.0058   gamma=   25.13 GHz
     lambda(   15)=  0.0781   gamma=  344.41 GHz
     lambda(   16)=  0.0164   gamma=   77.63 GHz
     lambda(   17)=  0.0138   gamma=   70.35 GHz
     lambda(   18)=  0.0165   gamma=   84.44 GHz
     lambda(   19)=  0.0215   gamma=  119.24 GHz
     lambda(   20)=  0.0266   gamma=  149.73 GHz
     lambda(   21)=  0.0122   gamma=   82.78 GHz
     Gaussian Broadening:   0.035 Ry, ngauss=   0
     DOS =  2.381114 states/spin/Ry/Unit Cell at Ef= 17.143351 eV
     lambda(    1)=  0.0879   gamma=   19.87 GHz
     lambda(    2)=  0.0250   gamma=    5.91 GHz
     lambda(    3)=  0.0334   gamma=   11.62 GHz
     lambda(    4)=  0.6526   gamma= 1181.67 GHz
     lambda(    5)=  0.3306   gamma=  758.87 GHz
     lambda(    6)=  0.2242   gamma=  520.80 GHz
     lambda(    7)=  0.2124   gamma=  584.15 GHz
     lambda(    8)=  0.2729   gamma=  761.77 GHz
     lambda(    9)=  0.1082   gamma=  355.59 GHz
     lambda(   10)=  0.0380   gamma=  133.67 GHz
     lambda(   11)=  0.0127   gamma=   47.22 GHz
     lambda(   12)=  0.0725   gamma=  288.09 GHz
     lambda(   13)=  0.0336   gamma=  135.07 GHz
     lambda(   14)=  0.0058   gamma=   25.28 GHz
     lambda(   15)=  0.0768   gamma=  341.82 GHz
     lambda(   16)=  0.0163   gamma=   78.15 GHz
     lambda(   17)=  0.0138   gamma=   71.11 GHz
     lambda(   18)=  0.0169   gamma=   87.09 GHz
     lambda(   19)=  0.0209   gamma=  117.11 GHz
     lambda(   20)=  0.0268   gamma=  152.14 GHz
     lambda(   21)=  0.0128   gamma=   87.34 GHz
     Gaussian Broadening:   0.040 Ry, ngauss=   0
     DOS =  2.398900 states/spin/Ry/Unit Cell at Ef= 17.142416 eV
     lambda(    1)=  0.0884   gamma=   20.13 GHz
     lambda(    2)=  0.0250   gamma=    5.94 GHz
     lambda(    3)=  0.0332   gamma=   11.65 GHz
     lambda(    4)=  0.6508   gamma= 1187.20 GHz
     lambda(    5)=  0.3286   gamma=  759.99 GHz
     lambda(    6)=  0.2194   gamma=  513.60 GHz
     lambda(    7)=  0.2142   gamma=  593.66 GHz
     lambda(    8)=  0.2689   gamma=  756.18 GHz
     lambda(    9)=  0.1072   gamma=  355.11 GHz
     lambda(   10)=  0.0378   gamma=  134.19 GHz
     lambda(   11)=  0.0134   gamma=   50.14 GHz
     lambda(   12)=  0.0710   gamma=  284.18 GHz
     lambda(   13)=  0.0333   gamma=  134.83 GHz
     lambda(   14)=  0.0058   gamma=   25.59 GHz
     lambda(   15)=  0.0757   gamma=  339.20 GHz
     lambda(   16)=  0.0163   gamma=   78.62 GHz
     lambda(   17)=  0.0139   gamma=   71.79 GHz
     lambda(   18)=  0.0173   gamma=   89.96 GHz
     lambda(   19)=  0.0204   gamma=  115.12 GHz
     lambda(   20)=  0.0269   gamma=  153.63 GHz
     lambda(   21)=  0.0135   gamma=   92.96 GHz
     Gaussian Broadening:   0.045 Ry, ngauss=   0
     DOS =  2.416850 states/spin/Ry/Unit Cell at Ef= 17.141341 eV
     lambda(    1)=  0.0890   gamma=   20.41 GHz
     lambda(    2)=  0.0249   gamma=    5.97 GHz
     lambda(    3)=  0.0330   gamma=   11.66 GHz
     lambda(    4)=  0.6458   gamma= 1187.01 GHz
     lambda(    5)=  0.3268   gamma=  761.31 GHz
     lambda(    6)=  0.2149   gamma=  506.68 GHz
     lambda(    7)=  0.2160   gamma=  602.92 GHz
     lambda(    8)=  0.2641   gamma=  748.40 GHz
     lambda(    9)=  0.1059   gamma=  353.21 GHz
     lambda(   10)=  0.0376   gamma=  134.50 GHz
     lambda(   11)=  0.0141   gamma=   53.49 GHz
     lambda(   12)=  0.0693   gamma=  279.47 GHz
     lambda(   13)=  0.0328   gamma=  134.08 GHz
     lambda(   14)=  0.0059   gamma=   26.04 GHz
     lambda(   15)=  0.0745   gamma=  336.52 GHz
     lambda(   16)=  0.0163   gamma=   79.11 GHz
     lambda(   17)=  0.0139   gamma=   72.54 GHz
     lambda(   18)=  0.0178   gamma=   93.11 GHz
     lambda(   19)=  0.0200   gamma=  113.32 GHz
     lambda(   20)=  0.0268   gamma=  154.36 GHz
     lambda(   21)=  0.0144   gamma=   99.48 GHz
     Gaussian Broadening:   0.050 Ry, ngauss=   0
     DOS =  2.436152 states/spin/Ry/Unit Cell at Ef= 17.140123 eV
     lambda(    1)=  0.0896   gamma=   20.71 GHz
     lambda(    2)=  0.0249   gamma=    6.01 GHz
     lambda(    3)=  0.0328   gamma=   11.68 GHz
     lambda(    4)=  0.6380   gamma= 1181.96 GHz
     lambda(    5)=  0.3249   gamma=  763.10 GHz
     lambda(    6)=  0.2106   gamma=  500.69 GHz
     lambda(    7)=  0.2175   gamma=  612.00 GHz
     lambda(    8)=  0.2590   gamma=  739.67 GHz
     lambda(    9)=  0.1041   gamma=  350.24 GHz
     lambda(   10)=  0.0374   gamma=  134.80 GHz
     lambda(   11)=  0.0150   gamma=   57.14 GHz
     lambda(   12)=  0.0675   gamma=  274.37 GHz
     lambda(   13)=  0.0323   gamma=  133.10 GHz
     lambda(   14)=  0.0060   gamma=   26.62 GHz
     lambda(   15)=  0.0735   gamma=  334.32 GHz
     lambda(   16)=  0.0163   gamma=   79.74 GHz
     lambda(   17)=  0.0140   gamma=   73.47 GHz
     lambda(   18)=  0.0183   gamma=   96.47 GHz
     lambda(   19)=  0.0195   gamma=  111.85 GHz
     lambda(   20)=  0.0267   gamma=  154.66 GHz
     lambda(   21)=  0.0153   gamma=  106.59 GHz
 
 
     Number of q in the star =   12
     List of q in the star:
          1   0.433012700   0.433012700   0.216506400
          2   0.433012700   0.433012700  -0.216506400
          3   0.433012700  -0.433012700   0.216506400
          4   0.216506400  -0.433012700   0.433012700
          5  -0.216506400  -0.433012700  -0.433012700
          6  -0.433012700   0.216506400   0.433012700
          7  -0.433012700  -0.216506400  -0.433012700
          8   0.433012700   0.216506400   0.433012700
          9   0.433012700  -0.216506400  -0.433012700
         10   0.216506400   0.433012700   0.433012700
         11  -0.216506400  -0.433012700   0.433012700
         12  -0.433012700   0.433012700  -0.216506400
 
     init_run     :      0.07s CPU      0.27s WALL (       1 calls)
     electrons    :     14.45s CPU     15.95s WALL (       1 calls)

     Called by init_run:
     wfcinit      :      0.00s CPU      0.15s WALL (       1 calls)
     potinit      :      0.01s CPU      0.05s WALL (       1 calls)
     hinit0       :      0.03s CPU      0.03s WALL (       1 calls)

     Called by electrons:
     c_bands      :     14.43s CPU     15.92s WALL (       1 calls)
     v_of_rho     :      0.01s CPU      0.05s WALL (       2 calls)
     newd         :      0.01s CPU      0.03s WALL (       2 calls)

     Called by c_bands:
     init_us_2    :      1.62s CPU      1.81s WALL (   62640 calls)
     cegterg      :      8.81s CPU      9.52s WALL (     583 calls)

     Called by *egterg:
     cdiaghg      :      3.03s CPU      3.26s WALL (    9016 calls)
     h_psi        :    685.43s CPU    819.89s WALL (  643145 calls)
     s_psi        :     12.90s CPU     14.59s WALL ( 1325411 calls)
     g_psi        :      0.03s CPU      0.03s WALL (    8436 calls)

     Called by h_psi:
     h_psi:calbec :     11.83s CPU     13.26s WALL (  643145 calls)
     vloc_psi     :    661.98s CPU    793.55s WALL (  643145 calls)
     add_vuspsi   :      6.13s CPU      6.93s WALL (  643145 calls)

     General routines
     calbec       :     43.95s CPU     47.33s WALL ( 1408641 calls)
     fft          :      0.57s CPU      0.83s WALL (    3399 calls)
     ffts         :      0.50s CPU      0.58s WALL (    6911 calls)
     fftw         :    964.13s CPU   1167.07s WALL ( 9070328 calls)
     interpolate  :      0.25s CPU      0.29s WALL (     359 calls)
     davcio       :      8.83s CPU    401.97s WALL (  266180 calls)
 
     Parallel routines
 
     PHONON       :  29m45.13s CPU  41m17.31s WALL

     INITIALIZATION: 
     phq_setup    :      0.01s CPU      0.03s WALL (       1 calls)
     phq_init     :     13.35s CPU     14.90s WALL (       1 calls)
 
     phq_init     :     13.35s CPU     14.90s WALL (       1 calls)
     set_drhoc    :      0.04s CPU      0.04s WALL (       3 calls)
     init_vloc    :      0.00s CPU      0.01s WALL (       2 calls)
     init_us_1    :      0.05s CPU      0.14s WALL (       2 calls)
     newd         :      0.01s CPU      0.03s WALL (       2 calls)
     dvanqq       :      0.18s CPU      0.18s WALL (       1 calls)
     drho         :      7.81s CPU      8.79s WALL (       1 calls)
 
     DYNAMICAL MATRIX:
     dynmat0      :      2.76s CPU      3.04s WALL (       1 calls)
     phqscf       :   1725.09s CPU   2411.11s WALL (       1 calls)
     dynmatrix    :      0.09s CPU      0.10s WALL (       1 calls)
 
     phqscf       :   1725.09s CPU   2411.11s WALL (       1 calls)
     solve_linter :   1707.20s CPU   2387.16s WALL (      21 calls)
     drhodv       :     17.87s CPU     21.34s WALL (      21 calls)
 
     dynmat0      :      2.76s CPU      3.04s WALL (       1 calls)
     dynmat_us    :      2.72s CPU      2.98s WALL (       1 calls)
     d2ionq       :      0.01s CPU      0.01s WALL (       1 calls)
     dynmatcc     :      0.03s CPU      0.03s WALL (       1 calls)
 
     dynmat_us    :      2.72s CPU      2.98s WALL (       1 calls)
     addusdynmat  :      0.00s CPU      0.00s WALL (       1 calls)
 
     phqscf       :   1725.09s CPU   2411.11s WALL (       1 calls)
     solve_linter :   1707.20s CPU   2387.16s WALL (      21 calls)
 
     solve_linter :   1707.20s CPU   2387.16s WALL (      21 calls)
     dvqpsi_us    :      9.13s CPU      9.95s WALL (    6090 calls)
     ortho        :     23.04s CPU     24.15s WALL (   48720 calls)
     cgsolve      :    728.37s CPU    868.52s WALL (   48720 calls)
     incdrhoscf   :    121.12s CPU    149.11s WALL (   48720 calls)
     addusddens   :      2.92s CPU      3.65s WALL (     189 calls)
     vpsifft      :    206.51s CPU    253.23s WALL (   48720 calls)
     dv_of_drho   :      0.46s CPU      0.48s WALL (     168 calls)
     mix_pot      :     17.76s CPU     46.08s WALL (     168 calls)
     psymdvscf    :      5.68s CPU      5.88s WALL (     168 calls)
     newdq        :      2.29s CPU      2.30s WALL (     168 calls)
     adddvscf     :      1.54s CPU      1.77s WALL (   48720 calls)
     drhodvus     :      4.88s CPU      7.06s WALL (      21 calls)
 
     dvqpsi_us    :      9.13s CPU      9.95s WALL (    6090 calls)
     dvqpsi_us_on :      3.47s CPU      3.71s WALL (    6090 calls)
 
     cgsolve      :    728.37s CPU    868.52s WALL (   48720 calls)
     ch_psi       :    720.12s CPU    859.13s WALL (  633546 calls)
 
     ch_psi       :    720.12s CPU    859.13s WALL (  633546 calls)
     h_psi        :    685.43s CPU    819.89s WALL (  643145 calls)
     last         :     26.58s CPU     29.92s WALL (  633546 calls)
 
     h_psi        :    685.43s CPU    819.89s WALL (  643145 calls)
     add_vuspsi   :      6.13s CPU      6.93s WALL (  643145 calls)
 
     incdrhoscf   :    121.12s CPU    149.11s WALL (   48720 calls)
     addusdbec    :      1.56s CPU      1.74s WALL (   54810 calls)
 
     drhodvus     :      4.88s CPU      7.06s WALL (      21 calls)
 
      Electron-phonon coupling
     elphel       :     61.49s CPU     88.07s WALL (      21 calls)
     elphsum      :     31.23s CPU     31.66s WALL (       1 calls)
 
      General routines
     calbec       :     43.95s CPU     47.33s WALL ( 1408641 calls)
     fft          :      0.57s CPU      0.83s WALL (    3399 calls)
     ffts         :      0.50s CPU      0.58s WALL (    6911 calls)
     fftw         :    964.13s CPU   1167.07s WALL ( 9070328 calls)
     davcio       :      8.83s CPU    401.97s WALL (  266180 calls)
     write_rec    :      0.13s CPU     25.66s WALL (     189 calls)
 
 
     PHONON       :  29m45.13s CPU  41m17.31s WALL

 
   This run was terminated on:  19:41: 8  21Jul2022            

=------------------------------------------------------------------------------=
   JOB DONE.
=------------------------------------------------------------------------------=
