
     Program PHONON v.6.8 starts on 22Jul2022 at  6:31: 9 

     This program is part of the open-source Quantum ESPRESSO suite
     for quantum simulation of materials; please cite
         "P. Giannozzi et al., J. Phys.:Condens. Matter 21 395502 (2009);
         "P. Giannozzi et al., J. Phys.:Condens. Matter 29 465901 (2017);
         "P. Giannozzi et al., J. Chem. Phys. 152 154105 (2020);
          URL http://www.quantum-espresso.org", 
     in publications or presentations arising from this work. More details at
     http://www.quantum-espresso.org/quote

     Parallel version (MPI), running on    48 processors

     MPI processes distributed on     1 nodes
     K-points division:     npool     =       4
     R & G space division:  proc/nbgrp/npool/nimage =      12
     188606 MiB available memory on the printing compute node when the environment starts
 
     Waiting for input...
     Reading input from standard input

     Reading xml data from directory:

     ./tmp/Ca1H6.save/

     IMPORTANT: XC functional enforced from input :
     Exchange-correlation= PBE
                           (   1   4   3   4   0   0   0)
     Any further DFT definition will be discarded
     Please, verify this is what you really want

 
     Parallelization info
     --------------------
     sticks:   dense  smooth     PW     G-vecs:    dense   smooth      PW
     Min         139      46     17                 3602      698     155
     Max         140      47     18                 3604      701     157
     Sum        1669     557    205                43227     8391    1865
 
     Using Slab Decomposition
 
     Reading collected, re-writing distributed wavefunctions

     Saving dvscf to file. Distribute only q points, not irreducible represetations.

     Calculation of q =    0.0000000  -0.1082532   0.3247595

     Subspace diagonalization in iterative solution of the eigenvalue problem:
     a serial algorithm will be used

 
     Parallelization info
     --------------------
     sticks:   dense  smooth     PW     G-vecs:    dense   smooth      PW
     Min         139      46     17                 3602      698     155
     Max         140      47     18                 3604      701     157
     Sum        1669     557    205                43227     8391    1865
 
     Using Slab Decomposition
 

     Title: 
     Electron-phonon coefficients for Ca1H6                                     


     bravais-lattice index     =            0
     lattice parameter (alat)  =       5.5613  a.u.
     unit-cell volume          =     132.4087 (a.u.)^3
     number of atoms/cell      =            7
     number of atomic types    =            2
     number of electrons       =        16.00
     number of Kohn-Sham states=           12
     kinetic-energy cutoff     =      60.0000  Ry
     charge density cutoff     =     720.0000  Ry
     Exchange-correlation= PBE
                           (   1   4   3   4   0   0   0)

     celldm(1)=   5.561340  celldm(2)=   0.000000  celldm(3)=   0.000000
     celldm(4)=   0.000000  celldm(5)=   0.000000  celldm(6)=   0.000000

     crystal axes: (cart. coord. in units of alat)
               a(1) = (  -0.577350   0.577350   0.577350 )  
               a(2) = (   0.577350  -0.577350   0.577350 )  
               a(3) = (   0.577350   0.577350  -0.577350 )  

     reciprocal axes: (cart. coord. in units 2 pi/alat)
               b(1) = ( -0.000000  0.866025  0.866025 )  
               b(2) = (  0.866025 -0.000000  0.866025 )  
               b(3) = (  0.866025  0.866025  0.000000 )  


     PseudoPot. # 1 for Ca read from file:
     /work/home/mayuan/code/my_script/scripts_tests/out2/200.0/pp/ca_pbe_v1.uspp.F.UPF
     MD5 check sum: 403a4c14b9e4d4dfdc3024c9a3812218
     Pseudo is Ultrasoft + core correction, Zval = 10.0
     Generated by new atomic code, or converted to UPF format
     Using radial grid of  845 points,  6 beta functions with: 
                l(1) =   0
                l(2) =   0
                l(3) =   1
                l(4) =   1
                l(5) =   2
                l(6) =   2
     Q(r) pseudized with  8 coefficients,  rinner =    1.500   1.500   1.500
                                                       1.500   1.500

     PseudoPot. # 2 for H  read from file:
     /work/home/mayuan/code/my_script/scripts_tests/out2/200.0/pp/h_pbe_v1.uspp.F.UPF
     MD5 check sum: 3408e3ff4ec8b0a4e358431e7e038a48
     Pseudo is Ultrasoft, Zval =  1.0
     Generated by new atomic code, or converted to UPF format
     Using radial grid of  615 points,  2 beta functions with: 
                l(1) =   0
                l(2) =   0
     Q(r) pseudized with  8 coefficients,  rinner =    0.700

     atomic species   valence    mass     pseudopotential
        Ca            10.00    40.07800     Ca( 1.00)
        H              1.00     1.00794     H ( 1.00)

     48 Sym. Ops., with inversion, found



   Cartesian axes

     site n.     atom                  positions (alat units)
         1           Ca  tau(   1) = (   0.0000000   0.0000000   0.0000000  )
         2           H   tau(   2) = (   0.2886751   0.0000000   0.5773503  )
         3           H   tau(   3) = (   0.2886751   0.5773503   0.0000000  )
         4           H   tau(   4) = (   0.5773503   0.2886751   0.0000000  )
         5           H   tau(   5) = (   0.0000000   0.2886751   0.5773503  )
         6           H   tau(   6) = (   0.0000000   0.5773503   0.2886751  )
         7           H   tau(   7) = (   0.5773503   0.0000000   0.2886751  )

     number of k points=  4352  Methfessel-Paxton smearing, width (Ry)=  0.0200

     Number of k-points >= 100: set verbosity='high' to print them.

     Dense  grid:    43227 G-vectors     FFT dimensions: (  48,  48,  48)

     Smooth grid:     8391 G-vectors     FFT dimensions: (  27,  27,  27)

     Estimated max dynamical RAM per process >       8.32 MB

     Estimated total dynamical RAM >     399.40 MB

     The potential is recalculated from file :
     ./tmp/_ph0/Ca1H6.save/charge-density

     Starting wfcs are   16 atomic wfcs

     Band Structure Calculation
     Davidson diagonalization with overlap

     ethr =  6.25E-11,  avg # of iterations = 15.0

     total cpu time spent up to now is       34.8 secs

     End of band structure calculation

     Number of k-points >= 100: set verbosity='high' to print the bands.

     the Fermi energy is    17.0980 ev

     Writing output data file ./tmp/_ph0/Ca1H6.save/

     Electron-phonon coefficients for Ca1H6                                     

     bravais-lattice index     =            0
     lattice parameter (alat)  =       5.5613  a.u.
     unit-cell volume          =     132.4087 (a.u.)^3
     number of atoms/cell      =            7
     number of atomic types    =            2
     kinetic-energy cut-off    =      60.0000  Ry
     charge density cut-off    =     720.0000  Ry
     convergence threshold     =      1.0E-16
     beta                      =       0.7000
     number of iterations used =            4
     Exchange-correlation= PBE
                           (   1   4   3   4   0   0   0)


     celldm(1)=    5.56134  celldm(2)=    0.00000  celldm(3)=    0.00000
     celldm(4)=    0.00000  celldm(5)=    0.00000  celldm(6)=    0.00000

     crystal axes: (cart. coord. in units of alat)
               a(1) = ( -0.5774  0.5774  0.5774 )  
               a(2) = (  0.5774 -0.5774  0.5774 )  
               a(3) = (  0.5774  0.5774 -0.5774 )  

     reciprocal axes: (cart. coord. in units 2 pi/alat)
               b(1) = ( -0.0000  0.8660  0.8660 )  
               b(2) = (  0.8660 -0.0000  0.8660 )  
               b(3) = (  0.8660  0.8660  0.0000 )  


     Atoms inside the unit cell: 

     Cartesian axes

     site n.  atom      mass           positions (alat units)
        1     Ca  40.0780   tau(    1) = (    0.00000    0.00000    0.00000  )
        2     H    1.0079   tau(    2) = (    0.28868    0.00000    0.57735  )
        3     H    1.0079   tau(    3) = (    0.28868    0.57735    0.00000  )
        4     H    1.0079   tau(    4) = (    0.57735    0.28868    0.00000  )
        5     H    1.0079   tau(    5) = (    0.00000    0.28868    0.57735  )
        6     H    1.0079   tau(    6) = (    0.00000    0.57735    0.28868  )
        7     H    1.0079   tau(    7) = (    0.57735    0.00000    0.28868  )

     Computing dynamical matrix for 
                    q = (   0.0000000  -0.1082532   0.3247595 )
 
      2 Sym.Ops. (no q -> -q+G )


     G cutoff =  564.0682  (   3604 G-vectors)     FFT grid: ( 48, 48, 48)
     G cutoff =  188.0227  (    699 G-vectors)  smooth grid: ( 27, 27, 27)

     number of k points=  4352  Methfessel-Paxton smearing, width (Ry)=  0.0200

     PseudoPot. # 1 for Ca read from file:
     /work/home/mayuan/code/my_script/scripts_tests/out2/200.0/pp/ca_pbe_v1.uspp.F.UPF
     MD5 check sum: 403a4c14b9e4d4dfdc3024c9a3812218
     Pseudo is Ultrasoft + core correction, Zval = 10.0
     Generated by new atomic code, or converted to UPF format
     Using radial grid of  845 points,  6 beta functions with: 
                l(1) =   0
                l(2) =   0
                l(3) =   1
                l(4) =   1
                l(5) =   2
                l(6) =   2
     Q(r) pseudized with  8 coefficients,  rinner =    1.500   1.500   1.500
                                                       1.500   1.500

     PseudoPot. # 2 for H  read from file:
     /work/home/mayuan/code/my_script/scripts_tests/out2/200.0/pp/h_pbe_v1.uspp.F.UPF
     MD5 check sum: 3408e3ff4ec8b0a4e358431e7e038a48
     Pseudo is Ultrasoft, Zval =  1.0
     Generated by new atomic code, or converted to UPF format
     Using radial grid of  615 points,  2 beta functions with: 
                l(1) =   0
                l(2) =   0
     Q(r) pseudized with  8 coefficients,  rinner =    0.700

     Mode symmetry, C_s (m)     point group:


     Atomic displacements:
     There are   21 irreducible representations

     Representation     1      1 modes -  To be done

     Representation     2      1 modes -  To be done

     Representation     3      1 modes -  To be done

     Representation     4      1 modes -  To be done

     Representation     5      1 modes -  To be done

     Representation     6      1 modes -  To be done

     Representation     7      1 modes -  To be done

     Representation     8      1 modes -  To be done

     Representation     9      1 modes -  To be done

     Representation    10      1 modes -  To be done

     Representation    11      1 modes -  To be done

     Representation    12      1 modes -  To be done

     Representation    13      1 modes -  To be done

     Representation    14      1 modes -  To be done

     Representation    15      1 modes -  To be done

     Representation    16      1 modes -  To be done

     Representation    17      1 modes -  To be done

     Representation    18      1 modes -  To be done

     Representation    19      1 modes -  To be done

     Representation    20      1 modes -  To be done

     Representation    21      1 modes -  To be done



     Alpha used in Ewald sum =   2.8000
     PHONON       :     58.82s CPU   1m11.39s WALL



     Representation #   1 mode #   1

     Self-consistent Calculation

      iter #   1 total cpu time :    86.0 secs   av.it.:   4.0
      thresh= 1.000E-02 alpha_mix =  0.700 |ddv_scf|^2 =  8.858E-06

      iter #   2 total cpu time :   111.1 secs   av.it.:   8.9
      thresh= 2.976E-04 alpha_mix =  0.700 |ddv_scf|^2 =  2.355E-04

      iter #   3 total cpu time :   138.5 secs   av.it.:   6.9
      thresh= 1.535E-03 alpha_mix =  0.700 |ddv_scf|^2 =  1.205E-08

      iter #   4 total cpu time :   172.8 secs   av.it.:   9.7
      thresh= 1.098E-05 alpha_mix =  0.700 |ddv_scf|^2 =  6.134E-10

      iter #   5 total cpu time :   208.8 secs   av.it.:   9.7
      thresh= 2.477E-06 alpha_mix =  0.700 |ddv_scf|^2 =  1.853E-11

      iter #   6 total cpu time :   243.2 secs   av.it.:   9.8
      thresh= 4.305E-07 alpha_mix =  0.700 |ddv_scf|^2 =  2.629E-12

      iter #   7 total cpu time :   285.3 secs   av.it.:   9.6
      thresh= 1.622E-07 alpha_mix =  0.700 |ddv_scf|^2 =  2.243E-12

      iter #   8 total cpu time :   324.0 secs   av.it.:   8.5
      thresh= 1.498E-07 alpha_mix =  0.700 |ddv_scf|^2 =  8.944E-12

      iter #   9 total cpu time :   361.3 secs   av.it.:   7.6
      thresh= 2.991E-07 alpha_mix =  0.700 |ddv_scf|^2 =  1.496E-12

      iter #  10 total cpu time :   400.5 secs   av.it.:   7.7
      thresh= 1.223E-07 alpha_mix =  0.700 |ddv_scf|^2 =  5.991E-15

      iter #  11 total cpu time :   439.7 secs   av.it.:   9.5
      thresh= 7.740E-09 alpha_mix =  0.700 |ddv_scf|^2 =  5.837E-16

      iter #  12 total cpu time :   481.5 secs   av.it.:   9.5
      thresh= 2.416E-09 alpha_mix =  0.700 |ddv_scf|^2 =  6.332E-17

     End of self-consistent calculation

     Convergence has been achieved 


     Representation #   2 mode #   2

     Self-consistent Calculation

      iter #   1 total cpu time :   511.4 secs   av.it.:   4.0
      thresh= 1.000E-02 alpha_mix =  0.700 |ddv_scf|^2 =  2.309E-06

      iter #   2 total cpu time :   545.0 secs   av.it.:   9.1
      thresh= 1.519E-04 alpha_mix =  0.700 |ddv_scf|^2 =  5.591E-05

      iter #   3 total cpu time :   579.5 secs   av.it.:   7.0
      thresh= 7.477E-04 alpha_mix =  0.700 |ddv_scf|^2 =  4.628E-08

      iter #   4 total cpu time :   614.0 secs   av.it.:   9.2
      thresh= 2.151E-05 alpha_mix =  0.700 |ddv_scf|^2 =  7.857E-10

      iter #   5 total cpu time :   650.9 secs   av.it.:   9.5
      thresh= 2.803E-06 alpha_mix =  0.700 |ddv_scf|^2 =  2.480E-11

      iter #   6 total cpu time :   688.9 secs   av.it.:   9.7
      thresh= 4.980E-07 alpha_mix =  0.700 |ddv_scf|^2 =  4.276E-12

      iter #   7 total cpu time :   731.3 secs   av.it.:   9.5
      thresh= 2.068E-07 alpha_mix =  0.700 |ddv_scf|^2 =  3.928E-11

      iter #   8 total cpu time :   774.9 secs   av.it.:   7.3
      thresh= 6.267E-07 alpha_mix =  0.700 |ddv_scf|^2 =  2.458E-12

      iter #   9 total cpu time :   818.3 secs   av.it.:   8.5
      thresh= 1.568E-07 alpha_mix =  0.700 |ddv_scf|^2 =  3.469E-12

      iter #  10 total cpu time :   856.9 secs   av.it.:   7.7
      thresh= 1.862E-07 alpha_mix =  0.700 |ddv_scf|^2 =  1.474E-14

      iter #  11 total cpu time :   903.1 secs   av.it.:   9.6
      thresh= 1.214E-08 alpha_mix =  0.700 |ddv_scf|^2 =  3.100E-15

      iter #  12 total cpu time :   944.5 secs   av.it.:   9.2
      thresh= 5.568E-09 alpha_mix =  0.700 |ddv_scf|^2 =  1.546E-16

      iter #  13 total cpu time :   988.6 secs   av.it.:   9.6
      thresh= 1.243E-09 alpha_mix =  0.700 |ddv_scf|^2 =  4.041E-16

      iter #  14 total cpu time :  1032.8 secs   av.it.:   7.7
      thresh= 2.010E-09 alpha_mix =  0.700 |ddv_scf|^2 =  2.706E-16

      iter #  15 total cpu time :  1071.6 secs   av.it.:   8.0
      thresh= 1.645E-09 alpha_mix =  0.700 |ddv_scf|^2 =  7.089E-17

     End of self-consistent calculation

     Convergence has been achieved 


     Representation #   3 mode #   3

     Self-consistent Calculation

      iter #   1 total cpu time :  1100.3 secs   av.it.:   4.2
      thresh= 1.000E-02 alpha_mix =  0.700 |ddv_scf|^2 =  3.266E-05

      iter #   2 total cpu time :  1130.7 secs   av.it.:   8.9
      thresh= 5.715E-04 alpha_mix =  0.700 |ddv_scf|^2 =  8.827E-04

      iter #   3 total cpu time :  1161.4 secs   av.it.:   6.9
      thresh= 2.971E-03 alpha_mix =  0.700 |ddv_scf|^2 =  1.011E-08

      iter #   4 total cpu time :  1198.1 secs   av.it.:   9.9
      thresh= 1.006E-05 alpha_mix =  0.700 |ddv_scf|^2 =  1.340E-09

      iter #   5 total cpu time :  1236.6 secs   av.it.:   9.5
      thresh= 3.660E-06 alpha_mix =  0.700 |ddv_scf|^2 =  1.939E-11

      iter #   6 total cpu time :  1277.8 secs   av.it.:   9.8
      thresh= 4.403E-07 alpha_mix =  0.700 |ddv_scf|^2 =  5.827E-12

      iter #   7 total cpu time :  1313.1 secs   av.it.:   9.2
      thresh= 2.414E-07 alpha_mix =  0.700 |ddv_scf|^2 =  3.564E-11

      iter #   8 total cpu time :  1345.5 secs   av.it.:   7.2
      thresh= 5.970E-07 alpha_mix =  0.700 |ddv_scf|^2 =  6.763E-14

      iter #   9 total cpu time :  1383.7 secs   av.it.:   9.6
      thresh= 2.601E-08 alpha_mix =  0.700 |ddv_scf|^2 =  2.773E-14

      iter #  10 total cpu time :  1422.2 secs   av.it.:   8.6
      thresh= 1.665E-08 alpha_mix =  0.700 |ddv_scf|^2 =  4.594E-14

      iter #  11 total cpu time :  1460.3 secs   av.it.:   7.9
      thresh= 2.143E-08 alpha_mix =  0.700 |ddv_scf|^2 =  6.951E-17

     End of self-consistent calculation

     Convergence has been achieved 


     Representation #   4 mode #   4

     Self-consistent Calculation

      iter #   1 total cpu time :  1490.8 secs   av.it.:   4.2
      thresh= 1.000E-02 alpha_mix =  0.700 |ddv_scf|^2 =  2.689E-05

      iter #   2 total cpu time :  1520.4 secs   av.it.:   8.9
      thresh= 5.186E-04 alpha_mix =  0.700 |ddv_scf|^2 =  7.220E-04

      iter #   3 total cpu time :  1548.8 secs   av.it.:   6.9
      thresh= 2.687E-03 alpha_mix =  0.700 |ddv_scf|^2 =  2.359E-08

      iter #   4 total cpu time :  1581.0 secs   av.it.:   9.8
      thresh= 1.536E-05 alpha_mix =  0.700 |ddv_scf|^2 =  2.029E-09

      iter #   5 total cpu time :  1614.5 secs   av.it.:   9.5
      thresh= 4.504E-06 alpha_mix =  0.700 |ddv_scf|^2 =  2.022E-11

      iter #   6 total cpu time :  1651.1 secs   av.it.:   9.8
      thresh= 4.497E-07 alpha_mix =  0.700 |ddv_scf|^2 =  2.402E-11

      iter #   7 total cpu time :  1686.7 secs   av.it.:   8.5
      thresh= 4.901E-07 alpha_mix =  0.700 |ddv_scf|^2 =  7.885E-11

      iter #   8 total cpu time :  1728.2 secs   av.it.:   7.6
      thresh= 8.880E-07 alpha_mix =  0.700 |ddv_scf|^2 =  6.586E-12

      iter #   9 total cpu time :  1766.0 secs   av.it.:   7.8
      thresh= 2.566E-07 alpha_mix =  0.700 |ddv_scf|^2 =  4.924E-12

      iter #  10 total cpu time :  1803.9 secs   av.it.:   8.0
      thresh= 2.219E-07 alpha_mix =  0.700 |ddv_scf|^2 =  7.628E-15

      iter #  11 total cpu time :  1848.7 secs   av.it.:   9.9
      thresh= 8.734E-09 alpha_mix =  0.700 |ddv_scf|^2 =  1.801E-15

      iter #  12 total cpu time :  1884.3 secs   av.it.:   9.5
      thresh= 4.243E-09 alpha_mix =  0.700 |ddv_scf|^2 =  5.181E-17

     End of self-consistent calculation

     Convergence has been achieved 


     Representation #   5 mode #   5

     Self-consistent Calculation

      iter #   1 total cpu time :  1915.0 secs   av.it.:   4.1
      thresh= 1.000E-02 alpha_mix =  0.700 |ddv_scf|^2 =  1.283E-05

      iter #   2 total cpu time :  1942.0 secs   av.it.:   9.0
      thresh= 3.582E-04 alpha_mix =  0.700 |ddv_scf|^2 =  3.428E-04

      iter #   3 total cpu time :  1974.2 secs   av.it.:   6.9
      thresh= 1.851E-03 alpha_mix =  0.700 |ddv_scf|^2 =  1.759E-08

      iter #   4 total cpu time :  2001.4 secs   av.it.:   9.7
      thresh= 1.326E-05 alpha_mix =  0.700 |ddv_scf|^2 =  1.201E-09

      iter #   5 total cpu time :  2035.4 secs   av.it.:   9.6
      thresh= 3.466E-06 alpha_mix =  0.700 |ddv_scf|^2 =  2.157E-11

      iter #   6 total cpu time :  2069.6 secs   av.it.:   9.8
      thresh= 4.645E-07 alpha_mix =  0.700 |ddv_scf|^2 =  2.303E-11

      iter #   7 total cpu time :  2106.7 secs   av.it.:   8.5
      thresh= 4.799E-07 alpha_mix =  0.700 |ddv_scf|^2 =  8.350E-11

      iter #   8 total cpu time :  2140.1 secs   av.it.:   7.6
      thresh= 9.138E-07 alpha_mix =  0.700 |ddv_scf|^2 =  6.413E-12

      iter #   9 total cpu time :  2177.2 secs   av.it.:   7.8
      thresh= 2.532E-07 alpha_mix =  0.700 |ddv_scf|^2 =  4.199E-12

      iter #  10 total cpu time :  2217.0 secs   av.it.:   8.2
      thresh= 2.049E-07 alpha_mix =  0.700 |ddv_scf|^2 =  7.975E-15

      iter #  11 total cpu time :  2259.5 secs   av.it.:   9.8
      thresh= 8.930E-09 alpha_mix =  0.700 |ddv_scf|^2 =  1.771E-15

      iter #  12 total cpu time :  2298.8 secs   av.it.:   9.6
      thresh= 4.208E-09 alpha_mix =  0.700 |ddv_scf|^2 =  9.256E-17

     End of self-consistent calculation

     Convergence has been achieved 


     Representation #   6 mode #   6

     Self-consistent Calculation

      iter #   1 total cpu time :  2324.7 secs   av.it.:   4.3
      thresh= 1.000E-02 alpha_mix =  0.700 |ddv_scf|^2 =  3.957E-05

      iter #   2 total cpu time :  2355.3 secs   av.it.:   8.9
      thresh= 6.290E-04 alpha_mix =  0.700 |ddv_scf|^2 =  1.056E-03

      iter #   3 total cpu time :  2383.9 secs   av.it.:   6.9
      thresh= 3.249E-03 alpha_mix =  0.700 |ddv_scf|^2 =  5.581E-08

      iter #   4 total cpu time :  2419.3 secs   av.it.:   9.5
      thresh= 2.362E-05 alpha_mix =  0.700 |ddv_scf|^2 =  3.896E-09

      iter #   5 total cpu time :  2453.5 secs   av.it.:   9.3
      thresh= 6.242E-06 alpha_mix =  0.700 |ddv_scf|^2 =  2.300E-11

      iter #   6 total cpu time :  2484.8 secs   av.it.:   9.8
      thresh= 4.796E-07 alpha_mix =  0.700 |ddv_scf|^2 =  8.624E-12

      iter #   7 total cpu time :  2521.4 secs   av.it.:   9.2
      thresh= 2.937E-07 alpha_mix =  0.700 |ddv_scf|^2 =  8.031E-11

      iter #   8 total cpu time :  2555.8 secs   av.it.:   7.5
      thresh= 8.962E-07 alpha_mix =  0.700 |ddv_scf|^2 =  6.806E-12

      iter #   9 total cpu time :  2590.2 secs   av.it.:   7.8
      thresh= 2.609E-07 alpha_mix =  0.700 |ddv_scf|^2 =  3.119E-12

      iter #  10 total cpu time :  2632.8 secs   av.it.:   8.2
      thresh= 1.766E-07 alpha_mix =  0.700 |ddv_scf|^2 =  1.517E-14

      iter #  11 total cpu time :  2678.8 secs   av.it.:   9.6
      thresh= 1.232E-08 alpha_mix =  0.700 |ddv_scf|^2 =  3.625E-15

      iter #  12 total cpu time :  2714.4 secs   av.it.:   9.2
      thresh= 6.021E-09 alpha_mix =  0.700 |ddv_scf|^2 =  1.010E-16

      iter #  13 total cpu time :  2748.9 secs   av.it.:   9.6
      thresh= 1.005E-09 alpha_mix =  0.700 |ddv_scf|^2 =  3.044E-16

      iter #  14 total cpu time :  2785.3 secs   av.it.:   7.8
      thresh= 1.745E-09 alpha_mix =  0.700 |ddv_scf|^2 =  1.845E-16

      iter #  15 total cpu time :  2826.8 secs   av.it.:   7.8
      thresh= 1.358E-09 alpha_mix =  0.700 |ddv_scf|^2 =  4.002E-17

     End of self-consistent calculation

     Convergence has been achieved 


     Representation #   7 mode #   7

     Self-consistent Calculation

      iter #   1 total cpu time :  2858.8 secs   av.it.:   7.2
      thresh= 1.000E-02 alpha_mix =  0.700 |ddv_scf|^2 =  3.332E-03

      iter #   2 total cpu time :  2886.7 secs   av.it.:   8.9
      thresh= 5.772E-03 alpha_mix =  0.700 |ddv_scf|^2 =  9.077E-02

      iter #   3 total cpu time :  2916.1 secs   av.it.:   8.2
      thresh= 1.000E-02 alpha_mix =  0.700 |ddv_scf|^2 =  2.603E-06

      iter #   4 total cpu time :  2945.6 secs   av.it.:   9.7
      thresh= 1.613E-04 alpha_mix =  0.700 |ddv_scf|^2 =  4.183E-07

      iter #   5 total cpu time :  2979.7 secs   av.it.:   9.2
      thresh= 6.467E-05 alpha_mix =  0.700 |ddv_scf|^2 =  3.909E-09

      iter #   6 total cpu time :  3011.5 secs   av.it.:   8.9
      thresh= 6.252E-06 alpha_mix =  0.700 |ddv_scf|^2 =  2.585E-10

      iter #   7 total cpu time :  3044.1 secs   av.it.:   8.8
      thresh= 1.608E-06 alpha_mix =  0.700 |ddv_scf|^2 =  2.358E-12

      iter #   8 total cpu time :  3080.1 secs   av.it.:   9.6
      thresh= 1.536E-07 alpha_mix =  0.700 |ddv_scf|^2 =  2.205E-12

      iter #   9 total cpu time :  3114.7 secs   av.it.:   8.4
      thresh= 1.485E-07 alpha_mix =  0.700 |ddv_scf|^2 =  3.234E-12

      iter #  10 total cpu time :  3149.0 secs   av.it.:   8.0
      thresh= 1.798E-07 alpha_mix =  0.700 |ddv_scf|^2 =  6.180E-15

      iter #  11 total cpu time :  3187.8 secs   av.it.:   9.4
      thresh= 7.861E-09 alpha_mix =  0.700 |ddv_scf|^2 =  1.199E-15

      iter #  12 total cpu time :  3222.2 secs   av.it.:   9.3
      thresh= 3.462E-09 alpha_mix =  0.700 |ddv_scf|^2 =  4.221E-17

     End of self-consistent calculation

     Convergence has been achieved 


     Representation #   8 mode #   8

     Self-consistent Calculation

      iter #   1 total cpu time :  3252.0 secs   av.it.:   4.2
      thresh= 1.000E-02 alpha_mix =  0.700 |ddv_scf|^2 =  2.740E-05

      iter #   2 total cpu time :  3282.9 secs   av.it.:   8.9
      thresh= 5.234E-04 alpha_mix =  0.700 |ddv_scf|^2 =  7.364E-04

      iter #   3 total cpu time :  3310.0 secs   av.it.:   6.9
      thresh= 2.714E-03 alpha_mix =  0.700 |ddv_scf|^2 =  1.968E-08

      iter #   4 total cpu time :  3343.6 secs   av.it.:   9.8
      thresh= 1.403E-05 alpha_mix =  0.700 |ddv_scf|^2 =  1.788E-09

      iter #   5 total cpu time :  3379.6 secs   av.it.:   9.6
      thresh= 4.228E-06 alpha_mix =  0.700 |ddv_scf|^2 =  2.149E-11

      iter #   6 total cpu time :  3415.6 secs   av.it.:   9.8
      thresh= 4.636E-07 alpha_mix =  0.700 |ddv_scf|^2 =  1.324E-11

      iter #   7 total cpu time :  3451.9 secs   av.it.:   8.8
      thresh= 3.639E-07 alpha_mix =  0.700 |ddv_scf|^2 =  8.389E-11

      iter #   8 total cpu time :  3484.5 secs   av.it.:   7.6
      thresh= 9.159E-07 alpha_mix =  0.700 |ddv_scf|^2 =  6.720E-12

      iter #   9 total cpu time :  3523.2 secs   av.it.:   7.7
      thresh= 2.592E-07 alpha_mix =  0.700 |ddv_scf|^2 =  5.462E-12

      iter #  10 total cpu time :  3559.7 secs   av.it.:   7.9
      thresh= 2.337E-07 alpha_mix =  0.700 |ddv_scf|^2 =  8.278E-15

      iter #  11 total cpu time :  3597.6 secs   av.it.:   9.9
      thresh= 9.098E-09 alpha_mix =  0.700 |ddv_scf|^2 =  1.874E-15

      iter #  12 total cpu time :  3641.8 secs   av.it.:   9.6
      thresh= 4.329E-09 alpha_mix =  0.700 |ddv_scf|^2 =  5.117E-17

     End of self-consistent calculation

     Convergence has been achieved 


     Representation #   9 mode #   9

     Self-consistent Calculation

      iter #   1 total cpu time :  3672.2 secs   av.it.:   4.0
      thresh= 1.000E-02 alpha_mix =  0.700 |ddv_scf|^2 =  4.978E-06

      iter #   2 total cpu time :  3697.8 secs   av.it.:   9.0
      thresh= 2.231E-04 alpha_mix =  0.700 |ddv_scf|^2 =  1.304E-04

      iter #   3 total cpu time :  3725.8 secs   av.it.:   6.9
      thresh= 1.142E-03 alpha_mix =  0.700 |ddv_scf|^2 =  1.816E-08

      iter #   4 total cpu time :  3756.7 secs   av.it.:   9.6
      thresh= 1.348E-05 alpha_mix =  0.700 |ddv_scf|^2 =  8.992E-10

      iter #   5 total cpu time :  3791.1 secs   av.it.:   9.6
      thresh= 2.999E-06 alpha_mix =  0.700 |ddv_scf|^2 =  2.193E-11

      iter #   6 total cpu time :  3830.5 secs   av.it.:   9.8
      thresh= 4.683E-07 alpha_mix =  0.700 |ddv_scf|^2 =  7.867E-12

      iter #   7 total cpu time :  3866.9 secs   av.it.:   8.9
      thresh= 2.805E-07 alpha_mix =  0.700 |ddv_scf|^2 =  7.623E-11

      iter #   8 total cpu time :  3900.6 secs   av.it.:   7.4
      thresh= 8.731E-07 alpha_mix =  0.700 |ddv_scf|^2 =  3.224E-12

      iter #   9 total cpu time :  3938.8 secs   av.it.:   8.1
      thresh= 1.796E-07 alpha_mix =  0.700 |ddv_scf|^2 =  2.877E-12

      iter #  10 total cpu time :  3976.8 secs   av.it.:   8.1
      thresh= 1.696E-07 alpha_mix =  0.700 |ddv_scf|^2 =  8.626E-15

      iter #  11 total cpu time :  4017.1 secs   av.it.:   9.7
      thresh= 9.287E-09 alpha_mix =  0.700 |ddv_scf|^2 =  1.864E-15

      iter #  12 total cpu time :  4056.5 secs   av.it.:   9.5
      thresh= 4.317E-09 alpha_mix =  0.700 |ddv_scf|^2 =  9.654E-17

     End of self-consistent calculation

     Convergence has been achieved 


     Representation #  10 mode #  10

     Self-consistent Calculation

      iter #   1 total cpu time :  4087.1 secs   av.it.:   6.7
      thresh= 1.000E-02 alpha_mix =  0.700 |ddv_scf|^2 =  3.420E-04

      iter #   2 total cpu time :  4118.9 secs   av.it.:   9.1
      thresh= 1.849E-03 alpha_mix =  0.700 |ddv_scf|^2 =  9.032E-03

      iter #   3 total cpu time :  4158.7 secs   av.it.:   6.9
      thresh= 9.504E-03 alpha_mix =  0.700 |ddv_scf|^2 =  1.031E-06

      iter #   4 total cpu time :  4193.0 secs   av.it.:   9.7
      thresh= 1.015E-04 alpha_mix =  0.700 |ddv_scf|^2 =  1.585E-08

      iter #   5 total cpu time :  4229.1 secs   av.it.:   9.6
      thresh= 1.259E-05 alpha_mix =  0.700 |ddv_scf|^2 =  9.732E-10

      iter #   6 total cpu time :  4268.0 secs   av.it.:   9.5
      thresh= 3.120E-06 alpha_mix =  0.700 |ddv_scf|^2 =  1.128E-10

      iter #   7 total cpu time :  4306.0 secs   av.it.:   9.2
      thresh= 1.062E-06 alpha_mix =  0.700 |ddv_scf|^2 =  1.076E-09

      iter #   8 total cpu time :  4344.7 secs   av.it.:   7.7
      thresh= 3.281E-06 alpha_mix =  0.700 |ddv_scf|^2 =  5.720E-12

      iter #   9 total cpu time :  4383.7 secs   av.it.:   9.4
      thresh= 2.392E-07 alpha_mix =  0.700 |ddv_scf|^2 =  1.007E-11

      iter #  10 total cpu time :  4422.3 secs   av.it.:   7.8
      thresh= 3.174E-07 alpha_mix =  0.700 |ddv_scf|^2 =  9.502E-13

      iter #  11 total cpu time :  4460.4 secs   av.it.:   8.7
      thresh= 9.748E-08 alpha_mix =  0.700 |ddv_scf|^2 =  5.015E-15

      iter #  12 total cpu time :  4506.2 secs   av.it.:   9.7
      thresh= 7.082E-09 alpha_mix =  0.700 |ddv_scf|^2 =  8.683E-16

      iter #  13 total cpu time :  4549.7 secs   av.it.:   9.7
      thresh= 2.947E-09 alpha_mix =  0.700 |ddv_scf|^2 =  1.937E-15

      iter #  14 total cpu time :  4590.2 secs   av.it.:   8.1
      thresh= 4.401E-09 alpha_mix =  0.700 |ddv_scf|^2 =  1.059E-15

      iter #  15 total cpu time :  4630.5 secs   av.it.:   8.2
      thresh= 3.254E-09 alpha_mix =  0.700 |ddv_scf|^2 =  8.289E-17

     End of self-consistent calculation

     Convergence has been achieved 


     Representation #  11 mode #  11

     Self-consistent Calculation

      iter #   1 total cpu time :  4660.9 secs   av.it.:   4.1
      thresh= 1.000E-02 alpha_mix =  0.700 |ddv_scf|^2 =  2.480E-05

      iter #   2 total cpu time :  4694.3 secs   av.it.:   8.9
      thresh= 4.980E-04 alpha_mix =  0.700 |ddv_scf|^2 =  6.702E-04

      iter #   3 total cpu time :  4723.9 secs   av.it.:   6.9
      thresh= 2.589E-03 alpha_mix =  0.700 |ddv_scf|^2 =  6.158E-09

      iter #   4 total cpu time :  4761.4 secs   av.it.:   9.9
      thresh= 7.847E-06 alpha_mix =  0.700 |ddv_scf|^2 =  6.763E-10

      iter #   5 total cpu time :  4798.6 secs   av.it.:   9.5
      thresh= 2.601E-06 alpha_mix =  0.700 |ddv_scf|^2 =  1.427E-11

      iter #   6 total cpu time :  4836.1 secs   av.it.:   9.7
      thresh= 3.777E-07 alpha_mix =  0.700 |ddv_scf|^2 =  2.731E-12

      iter #   7 total cpu time :  4874.6 secs   av.it.:   9.5
      thresh= 1.652E-07 alpha_mix =  0.700 |ddv_scf|^2 =  3.177E-12

      iter #   8 total cpu time :  4911.1 secs   av.it.:   7.6
      thresh= 1.782E-07 alpha_mix =  0.700 |ddv_scf|^2 =  1.463E-12

      iter #   9 total cpu time :  4951.1 secs   av.it.:   8.2
      thresh= 1.210E-07 alpha_mix =  0.700 |ddv_scf|^2 =  1.418E-12

      iter #  10 total cpu time :  4994.5 secs   av.it.:   7.7
      thresh= 1.191E-07 alpha_mix =  0.700 |ddv_scf|^2 =  2.020E-15

      iter #  11 total cpu time :  5036.5 secs   av.it.:   9.8
      thresh= 4.495E-09 alpha_mix =  0.700 |ddv_scf|^2 =  1.687E-16

      iter #  12 total cpu time :  5076.5 secs   av.it.:   9.6
      thresh= 1.299E-09 alpha_mix =  0.700 |ddv_scf|^2 =  2.591E-17

     End of self-consistent calculation

     Convergence has been achieved 


     Representation #  12 mode #  12

     Self-consistent Calculation

      iter #   1 total cpu time :  5106.0 secs   av.it.:   4.2
      thresh= 1.000E-02 alpha_mix =  0.700 |ddv_scf|^2 =  2.887E-05

      iter #   2 total cpu time :  5134.2 secs   av.it.:   8.9
      thresh= 5.373E-04 alpha_mix =  0.700 |ddv_scf|^2 =  7.752E-04

      iter #   3 total cpu time :  5169.1 secs   av.it.:   6.9
      thresh= 2.784E-03 alpha_mix =  0.700 |ddv_scf|^2 =  1.566E-08

      iter #   4 total cpu time :  5203.4 secs   av.it.:   9.7
      thresh= 1.251E-05 alpha_mix =  0.700 |ddv_scf|^2 =  1.268E-09

      iter #   5 total cpu time :  5238.3 secs   av.it.:   9.6
      thresh= 3.561E-06 alpha_mix =  0.700 |ddv_scf|^2 =  2.851E-11

      iter #   6 total cpu time :  5275.0 secs   av.it.:   9.7
      thresh= 5.339E-07 alpha_mix =  0.700 |ddv_scf|^2 =  5.971E-12

      iter #   7 total cpu time :  5315.4 secs   av.it.:   9.3
      thresh= 2.444E-07 alpha_mix =  0.700 |ddv_scf|^2 =  5.909E-11

      iter #   8 total cpu time :  5356.1 secs   av.it.:   7.3
      thresh= 7.687E-07 alpha_mix =  0.700 |ddv_scf|^2 =  7.992E-12

      iter #   9 total cpu time :  5390.2 secs   av.it.:   7.7
      thresh= 2.827E-07 alpha_mix =  0.700 |ddv_scf|^2 =  1.967E-12

      iter #  10 total cpu time :  5432.8 secs   av.it.:   8.4
      thresh= 1.403E-07 alpha_mix =  0.700 |ddv_scf|^2 =  9.686E-15

      iter #  11 total cpu time :  5471.4 secs   av.it.:   9.7
      thresh= 9.842E-09 alpha_mix =  0.700 |ddv_scf|^2 =  2.020E-15

      iter #  12 total cpu time :  5509.1 secs   av.it.:   9.5
      thresh= 4.495E-09 alpha_mix =  0.700 |ddv_scf|^2 =  1.680E-16

      iter #  13 total cpu time :  5553.8 secs   av.it.:   9.5
      thresh= 1.296E-09 alpha_mix =  0.700 |ddv_scf|^2 =  2.301E-16

      iter #  14 total cpu time :  5591.6 secs   av.it.:   8.1
      thresh= 1.517E-09 alpha_mix =  0.700 |ddv_scf|^2 =  5.146E-16

      iter #  15 total cpu time :  5628.0 secs   av.it.:   7.5
      thresh= 2.268E-09 alpha_mix =  0.700 |ddv_scf|^2 =  7.965E-17

     End of self-consistent calculation

     Convergence has been achieved 


     Representation #  13 mode #  13

     Self-consistent Calculation

      iter #   1 total cpu time :  5653.5 secs   av.it.:   3.9
      thresh= 1.000E-02 alpha_mix =  0.700 |ddv_scf|^2 =  8.351E-06

      iter #   2 total cpu time :  5680.6 secs   av.it.:   8.9
      thresh= 2.890E-04 alpha_mix =  0.700 |ddv_scf|^2 =  2.210E-04

      iter #   3 total cpu time :  5712.1 secs   av.it.:   6.9
      thresh= 1.486E-03 alpha_mix =  0.700 |ddv_scf|^2 =  1.785E-08

      iter #   4 total cpu time :  5746.3 secs   av.it.:   9.6
      thresh= 1.336E-05 alpha_mix =  0.700 |ddv_scf|^2 =  1.253E-09

      iter #   5 total cpu time :  5783.7 secs   av.it.:   9.4
      thresh= 3.540E-06 alpha_mix =  0.700 |ddv_scf|^2 =  1.884E-11

      iter #   6 total cpu time :  5816.6 secs   av.it.:   9.8
      thresh= 4.340E-07 alpha_mix =  0.700 |ddv_scf|^2 =  4.562E-12

      iter #   7 total cpu time :  5850.3 secs   av.it.:   9.2
      thresh= 2.136E-07 alpha_mix =  0.700 |ddv_scf|^2 =  4.950E-11

      iter #   8 total cpu time :  5884.0 secs   av.it.:   7.4
      thresh= 7.035E-07 alpha_mix =  0.700 |ddv_scf|^2 =  3.213E-12

      iter #   9 total cpu time :  5921.4 secs   av.it.:   8.1
      thresh= 1.793E-07 alpha_mix =  0.700 |ddv_scf|^2 =  2.291E-12

      iter #  10 total cpu time :  5957.7 secs   av.it.:   8.0
      thresh= 1.514E-07 alpha_mix =  0.700 |ddv_scf|^2 =  1.407E-14

      iter #  11 total cpu time :  5995.9 secs   av.it.:   9.5
      thresh= 1.186E-08 alpha_mix =  0.700 |ddv_scf|^2 =  3.321E-15

      iter #  12 total cpu time :  6039.8 secs   av.it.:   9.1
      thresh= 5.763E-09 alpha_mix =  0.700 |ddv_scf|^2 =  5.757E-17

     End of self-consistent calculation

     Convergence has been achieved 


     Representation #  14 mode #  14

     Self-consistent Calculation

      iter #   1 total cpu time :  6067.4 secs   av.it.:   3.6
      thresh= 1.000E-02 alpha_mix =  0.700 |ddv_scf|^2 =  3.455E-08

      iter #   2 total cpu time :  6098.9 secs   av.it.:   9.5
      thresh= 1.859E-05 alpha_mix =  0.700 |ddv_scf|^2 =  1.978E-09

      iter #   3 total cpu time :  6131.8 secs   av.it.:   9.6
      thresh= 4.448E-06 alpha_mix =  0.700 |ddv_scf|^2 =  1.850E-10

      iter #   4 total cpu time :  6162.7 secs   av.it.:   9.5
      thresh= 1.360E-06 alpha_mix =  0.700 |ddv_scf|^2 =  4.548E-12

      iter #   5 total cpu time :  6194.6 secs   av.it.:   9.3
      thresh= 2.133E-07 alpha_mix =  0.700 |ddv_scf|^2 =  2.890E-14

      iter #   6 total cpu time :  6228.2 secs   av.it.:   9.6
      thresh= 1.700E-08 alpha_mix =  0.700 |ddv_scf|^2 =  1.567E-15

      iter #   7 total cpu time :  6270.0 secs   av.it.:   9.5
      thresh= 3.959E-09 alpha_mix =  0.700 |ddv_scf|^2 =  4.474E-17

     End of self-consistent calculation

     Convergence has been achieved 


     Representation #  15 mode #  15

     Self-consistent Calculation

      iter #   1 total cpu time :  6301.8 secs   av.it.:   3.7
      thresh= 1.000E-02 alpha_mix =  0.700 |ddv_scf|^2 =  3.886E-08

      iter #   2 total cpu time :  6327.1 secs   av.it.:   9.5
      thresh= 1.971E-05 alpha_mix =  0.700 |ddv_scf|^2 =  1.085E-09

      iter #   3 total cpu time :  6356.6 secs   av.it.:   9.7
      thresh= 3.294E-06 alpha_mix =  0.700 |ddv_scf|^2 =  1.330E-10

      iter #   4 total cpu time :  6386.9 secs   av.it.:   9.5
      thresh= 1.153E-06 alpha_mix =  0.700 |ddv_scf|^2 =  6.286E-12

      iter #   5 total cpu time :  6422.4 secs   av.it.:   9.3
      thresh= 2.507E-07 alpha_mix =  0.700 |ddv_scf|^2 =  6.122E-14

      iter #   6 total cpu time :  6459.1 secs   av.it.:   9.5
      thresh= 2.474E-08 alpha_mix =  0.700 |ddv_scf|^2 =  1.842E-15

      iter #   7 total cpu time :  6498.5 secs   av.it.:   9.5
      thresh= 4.292E-09 alpha_mix =  0.700 |ddv_scf|^2 =  6.484E-17

     End of self-consistent calculation

     Convergence has been achieved 


     Representation #  16 mode #  16

     Self-consistent Calculation

      iter #   1 total cpu time :  6527.6 secs   av.it.:   6.5
      thresh= 1.000E-02 alpha_mix =  0.700 |ddv_scf|^2 =  1.244E-05

      iter #   2 total cpu time :  6560.7 secs   av.it.:   9.6
      thresh= 3.527E-04 alpha_mix =  0.700 |ddv_scf|^2 =  1.878E-06

      iter #   3 total cpu time :  6587.8 secs   av.it.:   9.4
      thresh= 1.370E-04 alpha_mix =  0.700 |ddv_scf|^2 =  3.779E-09

      iter #   4 total cpu time :  6622.5 secs   av.it.:   9.4
      thresh= 6.147E-06 alpha_mix =  0.700 |ddv_scf|^2 =  1.595E-10

      iter #   5 total cpu time :  6655.7 secs   av.it.:   9.4
      thresh= 1.263E-06 alpha_mix =  0.700 |ddv_scf|^2 =  1.882E-12

      iter #   6 total cpu time :  6691.1 secs   av.it.:   9.4
      thresh= 1.372E-07 alpha_mix =  0.700 |ddv_scf|^2 =  2.148E-14

      iter #   7 total cpu time :  6728.3 secs   av.it.:   8.8
      thresh= 1.466E-08 alpha_mix =  0.700 |ddv_scf|^2 =  8.894E-16

      iter #   8 total cpu time :  6770.6 secs   av.it.:   9.2
      thresh= 2.982E-09 alpha_mix =  0.700 |ddv_scf|^2 =  9.006E-18

     End of self-consistent calculation

     Convergence has been achieved 


     Representation #  17 mode #  17

     Self-consistent Calculation

      iter #   1 total cpu time :  6798.1 secs   av.it.:   3.9
      thresh= 1.000E-02 alpha_mix =  0.700 |ddv_scf|^2 =  1.013E-07

      iter #   2 total cpu time :  6831.9 secs   av.it.:   9.6
      thresh= 3.182E-05 alpha_mix =  0.700 |ddv_scf|^2 =  8.348E-09

      iter #   3 total cpu time :  6870.0 secs   av.it.:   9.6
      thresh= 9.137E-06 alpha_mix =  0.700 |ddv_scf|^2 =  2.686E-10

      iter #   4 total cpu time :  6909.6 secs   av.it.:   9.5
      thresh= 1.639E-06 alpha_mix =  0.700 |ddv_scf|^2 =  7.772E-12

      iter #   5 total cpu time :  6945.5 secs   av.it.:   9.5
      thresh= 2.788E-07 alpha_mix =  0.700 |ddv_scf|^2 =  2.210E-13

      iter #   6 total cpu time :  6987.9 secs   av.it.:   9.5
      thresh= 4.701E-08 alpha_mix =  0.700 |ddv_scf|^2 =  2.514E-15

      iter #   7 total cpu time :  7029.4 secs   av.it.:   9.5
      thresh= 5.014E-09 alpha_mix =  0.700 |ddv_scf|^2 =  6.009E-17

     End of self-consistent calculation

     Convergence has been achieved 


     Representation #  18 mode #  18

     Self-consistent Calculation

      iter #   1 total cpu time :  7061.8 secs   av.it.:   3.9
      thresh= 1.000E-02 alpha_mix =  0.700 |ddv_scf|^2 =  1.013E-07

      iter #   2 total cpu time :  7091.1 secs   av.it.:   9.6
      thresh= 3.182E-05 alpha_mix =  0.700 |ddv_scf|^2 =  8.348E-09

      iter #   3 total cpu time :  7121.0 secs   av.it.:   9.6
      thresh= 9.137E-06 alpha_mix =  0.700 |ddv_scf|^2 =  2.686E-10

      iter #   4 total cpu time :  7154.0 secs   av.it.:   9.5
      thresh= 1.639E-06 alpha_mix =  0.700 |ddv_scf|^2 =  7.772E-12

      iter #   5 total cpu time :  7186.7 secs   av.it.:   9.5
      thresh= 2.788E-07 alpha_mix =  0.700 |ddv_scf|^2 =  2.210E-13

      iter #   6 total cpu time :  7223.2 secs   av.it.:   9.5
      thresh= 4.701E-08 alpha_mix =  0.700 |ddv_scf|^2 =  2.514E-15

      iter #   7 total cpu time :  7260.3 secs   av.it.:   9.5
      thresh= 5.014E-09 alpha_mix =  0.700 |ddv_scf|^2 =  6.009E-17

     End of self-consistent calculation

     Convergence has been achieved 


     Representation #  19 mode #  19

     Self-consistent Calculation

      iter #   1 total cpu time :  7289.9 secs   av.it.:   3.9
      thresh= 1.000E-02 alpha_mix =  0.700 |ddv_scf|^2 =  1.016E-07

      iter #   2 total cpu time :  7322.9 secs   av.it.:   9.6
      thresh= 3.188E-05 alpha_mix =  0.700 |ddv_scf|^2 =  7.643E-09

      iter #   3 total cpu time :  7360.3 secs   av.it.:   9.7
      thresh= 8.742E-06 alpha_mix =  0.700 |ddv_scf|^2 =  2.595E-10

      iter #   4 total cpu time :  7398.6 secs   av.it.:   9.6
      thresh= 1.611E-06 alpha_mix =  0.700 |ddv_scf|^2 =  1.019E-11

      iter #   5 total cpu time :  7435.2 secs   av.it.:   9.5
      thresh= 3.191E-07 alpha_mix =  0.700 |ddv_scf|^2 =  2.279E-13

      iter #   6 total cpu time :  7484.6 secs   av.it.:   9.3
      thresh= 4.774E-08 alpha_mix =  0.700 |ddv_scf|^2 =  1.950E-15

      iter #   7 total cpu time :  7520.3 secs   av.it.:   9.4
      thresh= 4.415E-09 alpha_mix =  0.700 |ddv_scf|^2 =  7.953E-17

     End of self-consistent calculation

     Convergence has been achieved 


     Representation #  20 mode #  20

     Self-consistent Calculation

      iter #   1 total cpu time :  7549.8 secs   av.it.:   3.9
      thresh= 1.000E-02 alpha_mix =  0.700 |ddv_scf|^2 =  1.016E-07

      iter #   2 total cpu time :  7577.1 secs   av.it.:   9.6
      thresh= 3.188E-05 alpha_mix =  0.700 |ddv_scf|^2 =  7.643E-09

      iter #   3 total cpu time :  7614.1 secs   av.it.:   9.7
      thresh= 8.742E-06 alpha_mix =  0.700 |ddv_scf|^2 =  2.595E-10

      iter #   4 total cpu time :  7650.2 secs   av.it.:   9.6
      thresh= 1.611E-06 alpha_mix =  0.700 |ddv_scf|^2 =  1.019E-11

      iter #   5 total cpu time :  7687.6 secs   av.it.:   9.5
      thresh= 3.191E-07 alpha_mix =  0.700 |ddv_scf|^2 =  2.279E-13

      iter #   6 total cpu time :  7723.5 secs   av.it.:   9.3
      thresh= 4.774E-08 alpha_mix =  0.700 |ddv_scf|^2 =  1.950E-15

      iter #   7 total cpu time :  7761.4 secs   av.it.:   9.4
      thresh= 4.415E-09 alpha_mix =  0.700 |ddv_scf|^2 =  7.953E-17

     End of self-consistent calculation

     Convergence has been achieved 


     Representation #  21 mode #  21

     Self-consistent Calculation

      iter #   1 total cpu time :  7789.1 secs   av.it.:   3.8
      thresh= 1.000E-02 alpha_mix =  0.700 |ddv_scf|^2 =  5.797E-08

      iter #   2 total cpu time :  7818.9 secs   av.it.:   9.5
      thresh= 2.408E-05 alpha_mix =  0.700 |ddv_scf|^2 =  4.407E-09

      iter #   3 total cpu time :  7849.4 secs   av.it.:   9.5
      thresh= 6.639E-06 alpha_mix =  0.700 |ddv_scf|^2 =  2.369E-10

      iter #   4 total cpu time :  7882.8 secs   av.it.:   9.5
      thresh= 1.539E-06 alpha_mix =  0.700 |ddv_scf|^2 =  4.530E-12

      iter #   5 total cpu time :  7924.8 secs   av.it.:   9.3
      thresh= 2.128E-07 alpha_mix =  0.700 |ddv_scf|^2 =  3.347E-14

      iter #   6 total cpu time :  7963.0 secs   av.it.:   9.6
      thresh= 1.829E-08 alpha_mix =  0.700 |ddv_scf|^2 =  1.476E-15

      iter #   7 total cpu time :  7997.8 secs   av.it.:   9.5
      thresh= 3.841E-09 alpha_mix =  0.700 |ddv_scf|^2 =  7.894E-17

     End of self-consistent calculation

     Convergence has been achieved 
 
     Number of q in the star =   24
     List of q in the star:
          1   0.000000000  -0.108253200   0.324759500
          2  -0.000000000  -0.108253200  -0.324759500
          3   0.000000000   0.108253200  -0.324759500
          4  -0.108253200   0.000000000  -0.324759500
          5   0.108253200  -0.000000000  -0.324759500
          6  -0.108253200  -0.000000000   0.324759500
          7   0.108253200   0.000000000   0.324759500
          8   0.324759500   0.108253200   0.000000000
          9  -0.324759500   0.108253200  -0.000000000
         10   0.324759500  -0.108253200  -0.000000000
         11  -0.324759500  -0.108253200   0.000000000
         12  -0.000000000   0.324759500  -0.108253200
         13  -0.000000000  -0.324759500   0.108253200
         14   0.000000000   0.324759500   0.108253200
         15   0.000000000  -0.324759500  -0.108253200
         16  -0.108253200   0.324759500   0.000000000
         17   0.108253200   0.324759500  -0.000000000
         18  -0.108253200  -0.324759500  -0.000000000
         19   0.108253200  -0.324759500   0.000000000
         20   0.324759500   0.000000000  -0.108253200
         21   0.324759500  -0.000000000   0.108253200
         22  -0.324759500  -0.000000000  -0.108253200
         23  -0.324759500   0.000000000   0.108253200
         24   0.000000000   0.108253200   0.324759500

     Diagonalizing the dynamical matrix

     q = (    0.000000000  -0.108253200   0.324759500 ) 

 **************************************************************************
     freq (    1) =       6.351150 [THz] =     211.851544 [cm-1]
     freq (    2) =       7.309933 [THz] =     243.833102 [cm-1]
     freq (    3) =      13.232782 [THz] =     441.398081 [cm-1]
     freq (    4) =      29.570165 [THz] =     986.354534 [cm-1]
     freq (    5) =      30.357310 [THz] =    1012.610871 [cm-1]
     freq (    6) =      30.907450 [THz] =    1030.961546 [cm-1]
     freq (    7) =      34.959022 [THz] =    1166.107438 [cm-1]
     freq (    8) =      37.167376 [THz] =    1239.770227 [cm-1]
     freq (    9) =      37.393773 [THz] =    1247.322017 [cm-1]
     freq (   10) =      40.234537 [THz] =    1342.079680 [cm-1]
     freq (   11) =      40.829642 [THz] =    1361.930262 [cm-1]
     freq (   12) =      41.540206 [THz] =    1385.632134 [cm-1]
     freq (   13) =      43.010024 [THz] =    1434.659968 [cm-1]
     freq (   14) =      43.121944 [THz] =    1438.393217 [cm-1]
     freq (   15) =      44.406391 [THz] =    1481.237779 [cm-1]
     freq (   16) =      44.545215 [THz] =    1485.868436 [cm-1]
     freq (   17) =      47.662794 [THz] =    1589.859666 [cm-1]
     freq (   18) =      49.639950 [THz] =    1655.810493 [cm-1]
     freq (   19) =      49.788835 [THz] =    1660.776779 [cm-1]
     freq (   20) =      57.615872 [THz] =    1921.858615 [cm-1]
     freq (   21) =      61.867624 [THz] =    2063.681817 [cm-1]
 **************************************************************************

     Mode symmetry, C_s (m)     point group:

     freq (   1-   1) =        211.9  [cm-1]   --> A''                
     freq (   2-   2) =        243.8  [cm-1]   --> A'                 
     freq (   3-   3) =        441.4  [cm-1]   --> A'                 
     freq (   4-   4) =        986.4  [cm-1]   --> A''                
     freq (   5-   5) =       1012.6  [cm-1]   --> A'                 
     freq (   6-   6) =       1031.0  [cm-1]   --> A''                
     freq (   7-   7) =       1166.1  [cm-1]   --> A'                 
     freq (   8-   8) =       1239.8  [cm-1]   --> A''                
     freq (   9-   9) =       1247.3  [cm-1]   --> A'                 
     freq (  10-  10) =       1342.1  [cm-1]   --> A'                 
     freq (  11-  11) =       1361.9  [cm-1]   --> A''                
     freq (  12-  12) =       1385.6  [cm-1]   --> A'                 
     freq (  13-  13) =       1434.7  [cm-1]   --> A'                 
     freq (  14-  14) =       1438.4  [cm-1]   --> A''                
     freq (  15-  15) =       1481.2  [cm-1]   --> A''                
     freq (  16-  16) =       1485.9  [cm-1]   --> A'                 
     freq (  17-  17) =       1589.9  [cm-1]   --> A'                 
     freq (  18-  18) =       1655.8  [cm-1]   --> A''                
     freq (  19-  19) =       1660.8  [cm-1]   --> A'                 
     freq (  20-  20) =       1921.9  [cm-1]   --> A'                 
     freq (  21-  21) =       2063.7  [cm-1]   --> A'                 
     electron-phonon interaction  ...

     Gaussian Broadening:   0.005 Ry, ngauss=   0
     DOS =  1.900675 states/spin/Ry/Unit Cell at Ef= 17.155196 eV
     lambda(    1)=  0.1882   gamma=   13.78 GHz
     lambda(    2)=  0.1511   gamma=   14.66 GHz
     lambda(    3)=  0.0474   gamma=   15.06 GHz
     lambda(    4)=  0.4551   gamma=  722.20 GHz
     lambda(    5)=  0.0620   gamma=  103.63 GHz
     lambda(    6)=  0.0897   gamma=  155.55 GHz
     lambda(    7)=  0.1820   gamma=  403.66 GHz
     lambda(    8)=  0.1664   gamma=  417.23 GHz
     lambda(    9)=  0.1325   gamma=  336.35 GHz
     lambda(   10)=  0.0300   gamma=   88.02 GHz
     lambda(   11)=  0.0162   gamma=   49.12 GHz
     lambda(   12)=  0.0511   gamma=  160.15 GHz
     lambda(   13)=  0.0105   gamma=   35.36 GHz
     lambda(   14)=  0.0022   gamma=    7.31 GHz
     lambda(   15)=  0.0024   gamma=    8.45 GHz
     lambda(   16)=  0.0020   gamma=    7.19 GHz
     lambda(   17)=  0.0065   gamma=   26.86 GHz
     lambda(   18)=  0.0034   gamma=   15.21 GHz
     lambda(   19)=  0.0060   gamma=   26.83 GHz
     lambda(   20)=  0.0093   gamma=   55.90 GHz
     lambda(   21)=  0.0072   gamma=   50.24 GHz
     Gaussian Broadening:   0.010 Ry, ngauss=   0
     DOS =  2.130656 states/spin/Ry/Unit Cell at Ef= 17.149400 eV
     lambda(    1)=  0.1614   gamma=   13.24 GHz
     lambda(    2)=  0.1848   gamma=   20.09 GHz
     lambda(    3)=  0.0541   gamma=   19.27 GHz
     lambda(    4)=  0.3794   gamma=  674.90 GHz
     lambda(    5)=  0.0639   gamma=  119.80 GHz
     lambda(    6)=  0.0778   gamma=  151.23 GHz
     lambda(    7)=  0.1475   gamma=  366.71 GHz
     lambda(    8)=  0.1097   gamma=  308.24 GHz
     lambda(    9)=  0.1113   gamma=  316.55 GHz
     lambda(   10)=  0.0394   gamma=  129.75 GHz
     lambda(   11)=  0.0164   gamma=   55.63 GHz
     lambda(   12)=  0.0438   gamma=  153.77 GHz
     lambda(   13)=  0.0078   gamma=   29.37 GHz
     lambda(   14)=  0.0027   gamma=   10.25 GHz
     lambda(   15)=  0.0018   gamma=    7.32 GHz
     lambda(   16)=  0.0018   gamma=    7.28 GHz
     lambda(   17)=  0.0071   gamma=   32.90 GHz
     lambda(   18)=  0.0033   gamma=   16.56 GHz
     lambda(   19)=  0.0046   gamma=   23.10 GHz
     lambda(   20)=  0.0085   gamma=   57.18 GHz
     lambda(   21)=  0.0135   gamma=  105.17 GHz
     Gaussian Broadening:   0.015 Ry, ngauss=   0
     DOS =  2.235086 states/spin/Ry/Unit Cell at Ef= 17.146382 eV
     lambda(    1)=  0.1695   gamma=   14.59 GHz
     lambda(    2)=  0.1985   gamma=   22.63 GHz
     lambda(    3)=  0.0541   gamma=   20.23 GHz
     lambda(    4)=  0.3685   gamma=  687.65 GHz
     lambda(    5)=  0.0667   gamma=  131.19 GHz
     lambda(    6)=  0.0763   gamma=  155.61 GHz
     lambda(    7)=  0.1588   gamma=  414.21 GHz
     lambda(    8)=  0.1008   gamma=  297.23 GHz
     lambda(    9)=  0.1041   gamma=  310.61 GHz
     lambda(   10)=  0.0399   gamma=  137.74 GHz
     lambda(   11)=  0.0198   gamma=   70.52 GHz
     lambda(   12)=  0.0421   gamma=  155.18 GHz
     lambda(   13)=  0.0078   gamma=   30.68 GHz
     lambda(   14)=  0.0034   gamma=   13.45 GHz
     lambda(   15)=  0.0017   gamma=    7.07 GHz
     lambda(   16)=  0.0017   gamma=    7.31 GHz
     lambda(   17)=  0.0080   gamma=   38.57 GHz
     lambda(   18)=  0.0036   gamma=   18.93 GHz
     lambda(   19)=  0.0048   gamma=   25.46 GHz
     lambda(   20)=  0.0084   gamma=   59.79 GHz
     lambda(   21)=  0.0136   gamma=  111.44 GHz
     Gaussian Broadening:   0.020 Ry, ngauss=   0
     DOS =  2.290454 states/spin/Ry/Unit Cell at Ef= 17.145317 eV
     lambda(    1)=  0.1711   gamma=   15.09 GHz
     lambda(    2)=  0.1995   gamma=   23.31 GHz
     lambda(    3)=  0.0506   gamma=   19.37 GHz
     lambda(    4)=  0.3790   gamma=  724.82 GHz
     lambda(    5)=  0.0721   gamma=  145.26 GHz
     lambda(    6)=  0.0748   gamma=  156.39 GHz
     lambda(    7)=  0.1654   gamma=  442.09 GHz
     lambda(    8)=  0.0978   gamma=  295.43 GHz
     lambda(    9)=  0.1003   gamma=  306.80 GHz
     lambda(   10)=  0.0379   gamma=  134.11 GHz
     lambda(   11)=  0.0212   gamma=   77.19 GHz
     lambda(   12)=  0.0403   gamma=  151.99 GHz
     lambda(   13)=  0.0085   gamma=   34.40 GHz
     lambda(   14)=  0.0038   gamma=   15.37 GHz
     lambda(   15)=  0.0016   gamma=    7.07 GHz
     lambda(   16)=  0.0017   gamma=    7.27 GHz
     lambda(   17)=  0.0083   gamma=   41.41 GHz
     lambda(   18)=  0.0041   gamma=   21.94 GHz
     lambda(   19)=  0.0049   gamma=   26.72 GHz
     lambda(   20)=  0.0086   gamma=   62.22 GHz
     lambda(   21)=  0.0143   gamma=  119.70 GHz
     Gaussian Broadening:   0.025 Ry, ngauss=   0
     DOS =  2.332190 states/spin/Ry/Unit Cell at Ef= 17.144758 eV
     lambda(    1)=  0.1704   gamma=   15.30 GHz
     lambda(    2)=  0.1965   gamma=   23.38 GHz
     lambda(    3)=  0.0481   gamma=   18.75 GHz
     lambda(    4)=  0.3928   gamma=  764.83 GHz
     lambda(    5)=  0.0783   gamma=  160.76 GHz
     lambda(    6)=  0.0745   gamma=  158.44 GHz
     lambda(    7)=  0.1702   gamma=  463.21 GHz
     lambda(    8)=  0.0961   gamma=  295.73 GHz
     lambda(    9)=  0.0989   gamma=  308.07 GHz
     lambda(   10)=  0.0364   gamma=  131.38 GHz
     lambda(   11)=  0.0218   gamma=   80.81 GHz
     lambda(   12)=  0.0392   gamma=  150.55 GHz
     lambda(   13)=  0.0092   gamma=   37.72 GHz
     lambda(   14)=  0.0040   gamma=   16.74 GHz
     lambda(   15)=  0.0017   gamma=    7.31 GHz
     lambda(   16)=  0.0017   gamma=    7.31 GHz
     lambda(   17)=  0.0087   gamma=   44.22 GHz
     lambda(   18)=  0.0044   gamma=   24.28 GHz
     lambda(   19)=  0.0050   gamma=   27.33 GHz
     lambda(   20)=  0.0088   gamma=   65.11 GHz
     lambda(   21)=  0.0156   gamma=  133.41 GHz
     Gaussian Broadening:   0.030 Ry, ngauss=   0
     DOS =  2.360595 states/spin/Ry/Unit Cell at Ef= 17.144134 eV
     lambda(    1)=  0.1703   gamma=   15.49 GHz
     lambda(    2)=  0.1930   gamma=   23.25 GHz
     lambda(    3)=  0.0470   gamma=   18.57 GHz
     lambda(    4)=  0.4058   gamma=  799.81 GHz
     lambda(    5)=  0.0835   gamma=  173.48 GHz
     lambda(    6)=  0.0747   gamma=  160.82 GHz
     lambda(    7)=  0.1745   gamma=  480.82 GHz
     lambda(    8)=  0.0952   gamma=  296.60 GHz
     lambda(    9)=  0.0992   gamma=  312.83 GHz
     lambda(   10)=  0.0356   gamma=  130.00 GHz
     lambda(   11)=  0.0222   gamma=   83.27 GHz
     lambda(   12)=  0.0388   gamma=  151.01 GHz
     lambda(   13)=  0.0096   gamma=   39.93 GHz
     lambda(   14)=  0.0043   gamma=   17.82 GHz
     lambda(   15)=  0.0017   gamma=    7.69 GHz
     lambda(   16)=  0.0017   gamma=    7.42 GHz
     lambda(   17)=  0.0092   gamma=   47.03 GHz
     lambda(   18)=  0.0046   gamma=   25.65 GHz
     lambda(   19)=  0.0050   gamma=   27.90 GHz
     lambda(   20)=  0.0090   gamma=   67.69 GHz
     lambda(   21)=  0.0170   gamma=  146.37 GHz
     Gaussian Broadening:   0.035 Ry, ngauss=   0
     DOS =  2.381114 states/spin/Ry/Unit Cell at Ef= 17.143351 eV
     lambda(    1)=  0.1716   gamma=   15.74 GHz
     lambda(    2)=  0.1903   gamma=   23.13 GHz
     lambda(    3)=  0.0470   gamma=   18.72 GHz
     lambda(    4)=  0.4182   gamma=  831.50 GHz
     lambda(    5)=  0.0880   gamma=  184.40 GHz
     lambda(    6)=  0.0753   gamma=  163.66 GHz
     lambda(    7)=  0.1789   gamma=  497.14 GHz
     lambda(    8)=  0.0950   gamma=  298.55 GHz
     lambda(    9)=  0.1005   gamma=  319.44 GHz
     lambda(   10)=  0.0352   gamma=  129.65 GHz
     lambda(   11)=  0.0226   gamma=   85.57 GHz
     lambda(   12)=  0.0390   gamma=  153.02 GHz
     lambda(   13)=  0.0099   gamma=   41.63 GHz
     lambda(   14)=  0.0045   gamma=   18.87 GHz
     lambda(   15)=  0.0018   gamma=    8.18 GHz
     lambda(   16)=  0.0017   gamma=    7.61 GHz
     lambda(   17)=  0.0097   gamma=   50.34 GHz
     lambda(   18)=  0.0047   gamma=   26.49 GHz
     lambda(   19)=  0.0051   gamma=   28.90 GHz
     lambda(   20)=  0.0093   gamma=   70.44 GHz
     lambda(   21)=  0.0182   gamma=  158.58 GHz
     Gaussian Broadening:   0.040 Ry, ngauss=   0
     DOS =  2.398900 states/spin/Ry/Unit Cell at Ef= 17.142416 eV
     lambda(    1)=  0.1737   gamma=   16.05 GHz
     lambda(    2)=  0.1885   gamma=   23.07 GHz
     lambda(    3)=  0.0476   gamma=   19.08 GHz
     lambda(    4)=  0.4298   gamma=  860.84 GHz
     lambda(    5)=  0.0926   gamma=  195.44 GHz
     lambda(    6)=  0.0764   gamma=  167.29 GHz
     lambda(    7)=  0.1832   gamma=  512.93 GHz
     lambda(    8)=  0.0953   gamma=  301.67 GHz
     lambda(    9)=  0.1020   gamma=  326.75 GHz
     lambda(   10)=  0.0351   gamma=  130.02 GHz
     lambda(   11)=  0.0231   gamma=   88.09 GHz
     lambda(   12)=  0.0395   gamma=  156.05 GHz
     lambda(   13)=  0.0102   gamma=   43.37 GHz
     lambda(   14)=  0.0047   gamma=   20.03 GHz
     lambda(   15)=  0.0019   gamma=    8.79 GHz
     lambda(   16)=  0.0017   gamma=    7.86 GHz
     lambda(   17)=  0.0105   gamma=   54.68 GHz
     lambda(   18)=  0.0048   gamma=   27.19 GHz
     lambda(   19)=  0.0054   gamma=   30.52 GHz
     lambda(   20)=  0.0097   gamma=   74.08 GHz
     lambda(   21)=  0.0195   gamma=  170.94 GHz
     Gaussian Broadening:   0.045 Ry, ngauss=   0
     DOS =  2.416850 states/spin/Ry/Unit Cell at Ef= 17.141341 eV
     lambda(    1)=  0.1764   gamma=   16.42 GHz
     lambda(    2)=  0.1872   gamma=   23.08 GHz
     lambda(    3)=  0.0484   gamma=   19.54 GHz
     lambda(    4)=  0.4397   gamma=  887.44 GHz
     lambda(    5)=  0.0976   gamma=  207.66 GHz
     lambda(    6)=  0.0780   gamma=  171.89 GHz
     lambda(    7)=  0.1873   gamma=  528.20 GHz
     lambda(    8)=  0.0959   gamma=  305.74 GHz
     lambda(    9)=  0.1035   gamma=  333.96 GHz
     lambda(   10)=  0.0350   gamma=  130.80 GHz
     lambda(   11)=  0.0236   gamma=   90.92 GHz
     lambda(   12)=  0.0401   gamma=  159.53 GHz
     lambda(   13)=  0.0106   gamma=   45.38 GHz
     lambda(   14)=  0.0050   gamma=   21.39 GHz
     lambda(   15)=  0.0021   gamma=    9.52 GHz
     lambda(   16)=  0.0018   gamma=    8.16 GHz
     lambda(   17)=  0.0115   gamma=   60.31 GHz
     lambda(   18)=  0.0049   gamma=   27.94 GHz
     lambda(   19)=  0.0057   gamma=   32.72 GHz
     lambda(   20)=  0.0103   gamma=   79.10 GHz
     lambda(   21)=  0.0208   gamma=  183.69 GHz
     Gaussian Broadening:   0.050 Ry, ngauss=   0
     DOS =  2.436152 states/spin/Ry/Unit Cell at Ef= 17.140123 eV
     lambda(    1)=  0.1792   gamma=   16.81 GHz
     lambda(    2)=  0.1862   gamma=   23.14 GHz
     lambda(    3)=  0.0492   gamma=   20.03 GHz
     lambda(    4)=  0.4477   gamma=  910.79 GHz
     lambda(    5)=  0.1032   gamma=  221.34 GHz
     lambda(    6)=  0.0799   gamma=  177.54 GHz
     lambda(    7)=  0.1909   gamma=  542.86 GHz
     lambda(    8)=  0.0966   gamma=  310.50 GHz
     lambda(    9)=  0.1047   gamma=  340.66 GHz
     lambda(   10)=  0.0350   gamma=  131.77 GHz
     lambda(   11)=  0.0243   gamma=   94.06 GHz
     lambda(   12)=  0.0406   gamma=  163.04 GHz
     lambda(   13)=  0.0111   gamma=   47.67 GHz
     lambda(   14)=  0.0053   gamma=   22.99 GHz
     lambda(   15)=  0.0023   gamma=   10.37 GHz
     lambda(   16)=  0.0018   gamma=    8.50 GHz
     lambda(   17)=  0.0127   gamma=   67.18 GHz
     lambda(   18)=  0.0050   gamma=   28.82 GHz
     lambda(   19)=  0.0061   gamma=   35.39 GHz
     lambda(   20)=  0.0111   gamma=   85.64 GHz
     lambda(   21)=  0.0221   gamma=  196.67 GHz
 
 
     Number of q in the star =   24
     List of q in the star:
          1   0.000000000  -0.108253200   0.324759500
          2  -0.000000000  -0.108253200  -0.324759500
          3   0.000000000   0.108253200  -0.324759500
          4  -0.108253200   0.000000000  -0.324759500
          5   0.108253200  -0.000000000  -0.324759500
          6  -0.108253200  -0.000000000   0.324759500
          7   0.108253200   0.000000000   0.324759500
          8   0.324759500   0.108253200   0.000000000
          9  -0.324759500   0.108253200  -0.000000000
         10   0.324759500  -0.108253200  -0.000000000
         11  -0.324759500  -0.108253200   0.000000000
         12  -0.000000000   0.324759500  -0.108253200
         13  -0.000000000  -0.324759500   0.108253200
         14   0.000000000   0.324759500   0.108253200
         15   0.000000000  -0.324759500  -0.108253200
         16  -0.108253200   0.324759500   0.000000000
         17   0.108253200   0.324759500  -0.000000000
         18  -0.108253200  -0.324759500  -0.000000000
         19   0.108253200  -0.324759500   0.000000000
         20   0.324759500   0.000000000  -0.108253200
         21   0.324759500  -0.000000000   0.108253200
         22  -0.324759500  -0.000000000  -0.108253200
         23  -0.324759500   0.000000000   0.108253200
         24   0.000000000   0.108253200   0.324759500
 
     init_run     :      0.07s CPU      0.16s WALL (       1 calls)
     electrons    :     31.47s CPU     34.60s WALL (       1 calls)

     Called by init_run:
     wfcinit      :      0.00s CPU      0.02s WALL (       1 calls)
     potinit      :      0.01s CPU      0.06s WALL (       1 calls)
     hinit0       :      0.03s CPU      0.03s WALL (       1 calls)

     Called by electrons:
     c_bands      :     31.43s CPU     34.56s WALL (       1 calls)
     v_of_rho     :      0.01s CPU      0.05s WALL (       2 calls)
     newd         :      0.01s CPU      0.04s WALL (       2 calls)

     Called by c_bands:
     init_us_2    :      3.99s CPU      4.42s WALL (  147968 calls)
     cegterg      :     16.71s CPU     18.00s WALL (    1102 calls)

     Called by *egterg:
     cdiaghg      :      5.80s CPU      6.23s WALL (   17178 calls)
     h_psi        :   2557.32s CPU   3060.54s WALL ( 1662341 calls)
     s_psi        :     32.61s CPU     37.00s WALL ( 3428258 calls)
     g_psi        :      0.05s CPU      0.05s WALL (   16090 calls)

     Called by h_psi:
     h_psi:calbec :     30.80s CPU     34.61s WALL ( 1662341 calls)
     vloc_psi     :   2496.80s CPU   2992.37s WALL ( 1662341 calls)
     add_vuspsi   :     15.60s CPU     17.68s WALL ( 1662341 calls)

     General routines
     calbec       :    115.57s CPU    124.26s WALL ( 3614850 calls)
     fft          :      0.75s CPU      1.38s WALL (    4295 calls)
     ffts         :      0.70s CPU      0.78s WALL (   12357 calls)
     fftw         :   3660.06s CPU   4408.17s WALL (22476586 calls)
     interpolate  :      0.22s CPU      0.26s WALL (     471 calls)
     davcio       :     20.61s CPU    878.81s WALL (  650622 calls)
 
     Parallel routines
 
     PHONON       :      1h43m CPU      2h14m WALL

     INITIALIZATION: 
     phq_setup    :      0.01s CPU      0.06s WALL (       1 calls)
     phq_init     :     26.09s CPU     31.06s WALL (       1 calls)
 
     phq_init     :     26.09s CPU     31.06s WALL (       1 calls)
     set_drhoc    :      0.05s CPU      0.05s WALL (       3 calls)
     init_vloc    :      0.00s CPU      0.01s WALL (       2 calls)
     init_us_1    :      0.05s CPU      0.17s WALL (       2 calls)
     newd         :      0.01s CPU      0.04s WALL (       2 calls)
     dvanqq       :      0.17s CPU      0.17s WALL (       1 calls)
     drho         :     14.92s CPU     17.42s WALL (       1 calls)
 
     DYNAMICAL MATRIX:
     dynmat0      :      5.12s CPU      6.01s WALL (       1 calls)
     phqscf       :   6143.45s CPU   7939.78s WALL (       1 calls)
     dynmatrix    :      0.14s CPU      0.16s WALL (       1 calls)
 
     phqscf       :   6143.45s CPU   7939.78s WALL (       1 calls)
     solve_linter :   6094.03s CPU   7880.66s WALL (      21 calls)
     drhodv       :     49.40s CPU     55.30s WALL (      21 calls)
 
     dynmat0      :      5.12s CPU      6.01s WALL (       1 calls)
     dynmat_us    :      5.07s CPU      5.94s WALL (       1 calls)
     d2ionq       :      0.01s CPU      0.01s WALL (       1 calls)
     dynmatcc     :      0.04s CPU      0.04s WALL (       1 calls)
 
     dynmat_us    :      5.07s CPU      5.94s WALL (       1 calls)
     addusdynmat  :      0.00s CPU      0.00s WALL (       1 calls)
 
     phqscf       :   6143.45s CPU   7939.78s WALL (       1 calls)
     solve_linter :   6094.03s CPU   7880.66s WALL (      21 calls)
 
     solve_linter :   6094.03s CPU   7880.66s WALL (      21 calls)
     dvqpsi_us    :     16.78s CPU     18.33s WALL (   11424 calls)
     ortho        :     66.35s CPU     69.19s WALL (  121856 calls)
     cgsolve      :   2672.07s CPU   3190.74s WALL (  121856 calls)
     incdrhoscf   :    578.85s CPU    704.75s WALL (  121856 calls)
     addusddens   :      3.78s CPU      5.89s WALL (     245 calls)
     vpsifft      :    653.30s CPU    788.75s WALL (  121856 calls)
     dv_of_drho   :      0.63s CPU      0.67s WALL (     224 calls)
     mix_pot      :     30.29s CPU     77.66s WALL (     224 calls)
     psymdvscf    :      8.25s CPU      8.59s WALL (     224 calls)
     newdq        :      3.23s CPU      3.25s WALL (     224 calls)
     adddvscf     :      3.94s CPU      4.49s WALL (  121856 calls)
     drhodvus     :     10.39s CPU     21.81s WALL (      21 calls)
 
     dvqpsi_us    :     16.78s CPU     18.33s WALL (   11424 calls)
     dvqpsi_us_on :      6.37s CPU      6.80s WALL (   11424 calls)
 
     cgsolve      :   2672.07s CPU   3190.74s WALL (  121856 calls)
     ch_psi       :   2650.57s CPU   3166.21s WALL ( 1644061 calls)
 
     ch_psi       :   2650.57s CPU   3166.21s WALL ( 1644061 calls)
     h_psi        :   2557.32s CPU   3060.54s WALL ( 1662341 calls)
     last         :     68.44s CPU     77.26s WALL ( 1644061 calls)
 
     h_psi        :   2557.32s CPU   3060.54s WALL ( 1662341 calls)
     add_vuspsi   :     15.60s CPU     17.68s WALL ( 1662341 calls)
 
     incdrhoscf   :    578.85s CPU    704.75s WALL (  121856 calls)
     addusdbec    :      3.99s CPU      4.41s WALL (  133280 calls)
 
     drhodvus     :     10.39s CPU     21.81s WALL (      21 calls)
 
      Electron-phonon coupling
     elphel       :    137.12s CPU    196.91s WALL (      21 calls)
     elphsum      :     32.72s CPU     33.30s WALL (       1 calls)
 
      General routines
     calbec       :    115.57s CPU    124.26s WALL ( 3614850 calls)
     fft          :      0.75s CPU      1.38s WALL (    4295 calls)
     ffts         :      0.70s CPU      0.78s WALL (   12357 calls)
     fftw         :   3660.06s CPU   4408.17s WALL (22476586 calls)
     davcio       :     20.61s CPU    878.81s WALL (  650622 calls)
     write_rec    :      0.18s CPU     45.01s WALL (     245 calls)
 
 
     PHONON       :      1h43m CPU      2h14m WALL

 
   This run was terminated on:   8:45:14  22Jul2022            

=------------------------------------------------------------------------------=
   JOB DONE.
=------------------------------------------------------------------------------=
