
     Program PHONON v.6.8 starts on 31Jul2022 at  8:44: 8 

     This program is part of the open-source Quantum ESPRESSO suite
     for quantum simulation of materials; please cite
         "P. Giannozzi et al., J. Phys.:Condens. Matter 21 395502 (2009);
         "P. Giannozzi et al., J. Phys.:Condens. Matter 29 465901 (2017);
         "P. Giannozzi et al., J. Chem. Phys. 152 154105 (2020);
          URL http://www.quantum-espresso.org", 
     in publications or presentations arising from this work. More details at
     http://www.quantum-espresso.org/quote

     Parallel version (MPI), running on    48 processors

     MPI processes distributed on     1 nodes
     K-points division:     npool     =       4
     R & G space division:  proc/nbgrp/npool/nimage =      12
     188571 MiB available memory on the printing compute node when the environment starts
 
     Waiting for input...
     Reading input from standard input

     Reading xml data from directory:

     ./tmp/Ca1H6.save/

     IMPORTANT: XC functional enforced from input :
     Exchange-correlation= PBE
                           (   1   4   3   4   0   0   0)
     Any further DFT definition will be discarded
     Please, verify this is what you really want

 
     Parallelization info
     --------------------
     sticks:   dense  smooth     PW     G-vecs:    dense   smooth      PW
     Min         139      46     17                 3602      698     155
     Max         140      47     18                 3604      701     157
     Sum        1669     557    205                43227     8391    1865
 
     Using Slab Decomposition
 
     Reading collected, re-writing distributed wavefunctions


     Dynamical matrices for ( 8, 8, 8)  uniform grid of q-points
     (  29 q-points):
       N         xq(1)         xq(2)         xq(3) 
       1   0.000000000   0.000000000   0.000000000
       2   0.108253175   0.108253175   0.000000000
       3   0.216506351   0.216506351   0.000000000
       4   0.324759526   0.324759526   0.000000000
       5  -0.433012702  -0.433012702   0.000000000
       6   0.216506351   0.108253175   0.108253175
       7   0.324759526   0.216506351   0.108253175
       8   0.433012702   0.324759526   0.108253175
       9   0.433012702   0.216506351   0.216506351
      10   0.541265877   0.324759526   0.216506351
      11   0.216506351   0.216506351   0.216506351
      12   0.324759526   0.324759526   0.216506351
      13   0.433012702   0.433012702   0.216506351
      14  -0.000000000  -0.000000000   0.216506351
      15   0.433012702   0.324759526   0.324759526
      16  -0.000000000  -0.108253175   0.324759526
      17  -0.000000000  -0.216506351   0.433012702
      18   0.108253175  -0.108253175   0.433012702
      19  -0.866025404  -0.324759526  -0.324759526
      20  -0.757772228  -0.216506351  -0.324759526
      21  -0.649519053  -0.216506351  -0.216506351
      22   0.433012702   0.433012702   0.433012702
      23  -0.000000000  -0.000000000   0.433012702
      24  -0.000000000  -0.108253175   0.541265877
      25  -0.866025404  -0.216506351  -0.216506351
      26  -0.757772228  -0.108253175  -0.216506351
      27  -0.000000000  -0.000000000   0.649519053
      28  -0.866025404  -0.108253175  -0.108253175
      29  -0.866025404  -0.866025404  -0.866025404

     Saving dvscf to file. Distribute only q points, not irreducible represetations.

     Calculation of q =    0.3247595   0.3247595   0.2165064

     Subspace diagonalization in iterative solution of the eigenvalue problem:
     a serial algorithm will be used

 
     Parallelization info
     --------------------
     sticks:   dense  smooth     PW     G-vecs:    dense   smooth      PW
     Min         139      46     17                 3602      698     155
     Max         140      47     18                 3604      701     157
     Sum        1669     557    205                43227     8391    1865
 
     Using Slab Decomposition
 

     Title: 
     Electron-phonon coefficients for Ca1H6                                     


     bravais-lattice index     =            0
     lattice parameter (alat)  =       5.5613  a.u.
     unit-cell volume          =     132.4087 (a.u.)^3
     number of atoms/cell      =            7
     number of atomic types    =            2
     number of electrons       =        16.00
     number of Kohn-Sham states=           12
     kinetic-energy cutoff     =      60.0000  Ry
     charge density cutoff     =     720.0000  Ry
     Exchange-correlation= PBE
                           (   1   4   3   4   0   0   0)

     celldm(1)=   5.561340  celldm(2)=   0.000000  celldm(3)=   0.000000
     celldm(4)=   0.000000  celldm(5)=   0.000000  celldm(6)=   0.000000

     crystal axes: (cart. coord. in units of alat)
               a(1) = (  -0.577350   0.577350   0.577350 )  
               a(2) = (   0.577350  -0.577350   0.577350 )  
               a(3) = (   0.577350   0.577350  -0.577350 )  

     reciprocal axes: (cart. coord. in units 2 pi/alat)
               b(1) = ( -0.000000  0.866025  0.866025 )  
               b(2) = (  0.866025 -0.000000  0.866025 )  
               b(3) = (  0.866025  0.866025  0.000000 )  


     PseudoPot. # 1 for Ca read from file:
     /work/home/mayuan/code/my_script/scripts_tests/out2/200.0/pp/ca_pbe_v1.uspp.F.UPF
     MD5 check sum: 403a4c14b9e4d4dfdc3024c9a3812218
     Pseudo is Ultrasoft + core correction, Zval = 10.0
     Generated by new atomic code, or converted to UPF format
     Using radial grid of  845 points,  6 beta functions with: 
                l(1) =   0
                l(2) =   0
                l(3) =   1
                l(4) =   1
                l(5) =   2
                l(6) =   2
     Q(r) pseudized with  8 coefficients,  rinner =    1.500   1.500   1.500
                                                       1.500   1.500

     PseudoPot. # 2 for H  read from file:
     /work/home/mayuan/code/my_script/scripts_tests/out2/200.0/pp/h_pbe_v1.uspp.F.UPF
     MD5 check sum: 3408e3ff4ec8b0a4e358431e7e038a48
     Pseudo is Ultrasoft, Zval =  1.0
     Generated by new atomic code, or converted to UPF format
     Using radial grid of  615 points,  2 beta functions with: 
                l(1) =   0
                l(2) =   0
     Q(r) pseudized with  8 coefficients,  rinner =    0.700

     atomic species   valence    mass     pseudopotential
        Ca            10.00    40.07800     Ca( 1.00)
        H              1.00     1.00794     H ( 1.00)

     48 Sym. Ops., with inversion, found



   Cartesian axes

     site n.     atom                  positions (alat units)
         1           Ca  tau(   1) = (   0.0000000   0.0000000   0.0000000  )
         2           H   tau(   2) = (   0.2886751   0.0000000   0.5773503  )
         3           H   tau(   3) = (   0.2886751   0.5773503   0.0000000  )
         4           H   tau(   4) = (   0.5773503   0.2886751   0.0000000  )
         5           H   tau(   5) = (   0.0000000   0.2886751   0.5773503  )
         6           H   tau(   6) = (   0.0000000   0.5773503   0.2886751  )
         7           H   tau(   7) = (   0.5773503   0.0000000   0.2886751  )

     number of k points=  4352  Methfessel-Paxton smearing, width (Ry)=  0.0200

     Number of k-points >= 100: set verbosity='high' to print them.

     Dense  grid:    43227 G-vectors     FFT dimensions: (  48,  48,  48)

     Smooth grid:     8391 G-vectors     FFT dimensions: (  27,  27,  27)

     Estimated max dynamical RAM per process >       8.35 MB

     Estimated total dynamical RAM >     400.87 MB

     The potential is recalculated from file :
     ./tmp/_ph0/Ca1H6.q_12/Ca1H6.save/charge-density

     Starting wfcs are   16 atomic wfcs

     Band Structure Calculation
     Davidson diagonalization with overlap

     ethr =  6.25E-11,  avg # of iterations = 15.0

     total cpu time spent up to now is      136.8 secs

     End of band structure calculation

     Number of k-points >= 100: set verbosity='high' to print the bands.

     the Fermi energy is    17.0980 ev

     Writing output data file ./tmp/_ph0/Ca1H6.q_12/Ca1H6.save/

     Electron-phonon coefficients for Ca1H6                                     

     bravais-lattice index     =            0
     lattice parameter (alat)  =       5.5613  a.u.
     unit-cell volume          =     132.4087 (a.u.)^3
     number of atoms/cell      =            7
     number of atomic types    =            2
     kinetic-energy cut-off    =      60.0000  Ry
     charge density cut-off    =     720.0000  Ry
     convergence threshold     =      1.0E-16
     beta                      =       0.7000
     number of iterations used =            4
     Exchange-correlation= PBE
                           (   1   4   3   4   0   0   0)


     celldm(1)=    5.56134  celldm(2)=    0.00000  celldm(3)=    0.00000
     celldm(4)=    0.00000  celldm(5)=    0.00000  celldm(6)=    0.00000

     crystal axes: (cart. coord. in units of alat)
               a(1) = ( -0.5774  0.5774  0.5774 )  
               a(2) = (  0.5774 -0.5774  0.5774 )  
               a(3) = (  0.5774  0.5774 -0.5774 )  

     reciprocal axes: (cart. coord. in units 2 pi/alat)
               b(1) = ( -0.0000  0.8660  0.8660 )  
               b(2) = (  0.8660 -0.0000  0.8660 )  
               b(3) = (  0.8660  0.8660  0.0000 )  


     Atoms inside the unit cell: 

     Cartesian axes

     site n.  atom      mass           positions (alat units)
        1     Ca  40.0780   tau(    1) = (    0.00000    0.00000    0.00000  )
        2     H    1.0079   tau(    2) = (    0.28868    0.00000    0.57735  )
        3     H    1.0079   tau(    3) = (    0.28868    0.57735    0.00000  )
        4     H    1.0079   tau(    4) = (    0.57735    0.28868    0.00000  )
        5     H    1.0079   tau(    5) = (    0.00000    0.28868    0.57735  )
        6     H    1.0079   tau(    6) = (    0.00000    0.57735    0.28868  )
        7     H    1.0079   tau(    7) = (    0.57735    0.00000    0.28868  )

     Computing dynamical matrix for 
                    q = (   0.3247595   0.3247595   0.2165064 )
 
      2 Sym.Ops. (no q -> -q+G )


     G cutoff =  564.0682  (   3604 G-vectors)     FFT grid: ( 48, 48, 48)
     G cutoff =  188.0227  (    699 G-vectors)  smooth grid: ( 27, 27, 27)

     number of k points=  4352  Methfessel-Paxton smearing, width (Ry)=  0.0200

     PseudoPot. # 1 for Ca read from file:
     /work/home/mayuan/code/my_script/scripts_tests/out2/200.0/pp/ca_pbe_v1.uspp.F.UPF
     MD5 check sum: 403a4c14b9e4d4dfdc3024c9a3812218
     Pseudo is Ultrasoft + core correction, Zval = 10.0
     Generated by new atomic code, or converted to UPF format
     Using radial grid of  845 points,  6 beta functions with: 
                l(1) =   0
                l(2) =   0
                l(3) =   1
                l(4) =   1
                l(5) =   2
                l(6) =   2
     Q(r) pseudized with  8 coefficients,  rinner =    1.500   1.500   1.500
                                                       1.500   1.500

     PseudoPot. # 2 for H  read from file:
     /work/home/mayuan/code/my_script/scripts_tests/out2/200.0/pp/h_pbe_v1.uspp.F.UPF
     MD5 check sum: 3408e3ff4ec8b0a4e358431e7e038a48
     Pseudo is Ultrasoft, Zval =  1.0
     Generated by new atomic code, or converted to UPF format
     Using radial grid of  615 points,  2 beta functions with: 
                l(1) =   0
                l(2) =   0
     Q(r) pseudized with  8 coefficients,  rinner =    0.700

     Mode symmetry, C_s (m)     point group:


     Atomic displacements:
     There are   21 irreducible representations

     Representation     1      1 modes -  To be done

     Representation     2      1 modes -  To be done

     Representation     3      1 modes -  To be done

     Representation     4      1 modes -  To be done

     Representation     5      1 modes -  To be done

     Representation     6      1 modes -  To be done

     Representation     7      1 modes -  To be done

     Representation     8      1 modes -  To be done

     Representation     9      1 modes -  To be done

     Representation    10      1 modes -  To be done

     Representation    11      1 modes -  To be done

     Representation    12      1 modes -  To be done

     Representation    13      1 modes -  To be done

     Representation    14      1 modes -  To be done

     Representation    15      1 modes -  To be done

     Representation    16      1 modes -  To be done

     Representation    17      1 modes -  To be done

     Representation    18      1 modes -  To be done

     Representation    19      1 modes -  To be done

     Representation    20      1 modes -  To be done

     Representation    21      1 modes -  To be done



     Alpha used in Ewald sum =   2.8000
     PHONON       :   2m27.65s CPU   2m48.05s WALL



     Representation #   1 mode #   1

     Self-consistent Calculation

      iter #   1 total cpu time :   177.5 secs   av.it.:   4.3
      thresh= 1.000E-02 alpha_mix =  0.700 |ddv_scf|^2 =  4.318E-06

      iter #   2 total cpu time :   193.9 secs   av.it.:   9.3
      thresh= 2.078E-04 alpha_mix =  0.700 |ddv_scf|^2 =  2.338E-05

      iter #   3 total cpu time :   223.0 secs   av.it.:   8.0
      thresh= 4.835E-04 alpha_mix =  0.700 |ddv_scf|^2 =  1.693E-08

      iter #   4 total cpu time :   249.8 secs   av.it.:   9.5
      thresh= 1.301E-05 alpha_mix =  0.700 |ddv_scf|^2 =  8.709E-10

      iter #   5 total cpu time :   266.3 secs   av.it.:   9.4
      thresh= 2.951E-06 alpha_mix =  0.700 |ddv_scf|^2 =  5.506E-11

      iter #   6 total cpu time :   285.7 secs   av.it.:   9.6
      thresh= 7.420E-07 alpha_mix =  0.700 |ddv_scf|^2 =  3.444E-12

      iter #   7 total cpu time :   303.0 secs   av.it.:   9.6
      thresh= 1.856E-07 alpha_mix =  0.700 |ddv_scf|^2 =  6.405E-14

      iter #   8 total cpu time :   326.1 secs   av.it.:   9.9
      thresh= 2.531E-08 alpha_mix =  0.700 |ddv_scf|^2 =  2.121E-14

      iter #   9 total cpu time :   348.2 secs   av.it.:   9.4
      thresh= 1.456E-08 alpha_mix =  0.700 |ddv_scf|^2 =  3.467E-14

      iter #  10 total cpu time :   372.7 secs   av.it.:   8.4
      thresh= 1.862E-08 alpha_mix =  0.700 |ddv_scf|^2 =  1.172E-16

      iter #  11 total cpu time :   398.7 secs   av.it.:   9.7
      thresh= 1.083E-09 alpha_mix =  0.700 |ddv_scf|^2 =  3.238E-17

     End of self-consistent calculation

     Convergence has been achieved 


     Representation #   2 mode #   2

     Self-consistent Calculation

      iter #   1 total cpu time :   417.8 secs   av.it.:   4.1
      thresh= 1.000E-02 alpha_mix =  0.700 |ddv_scf|^2 =  3.683E-06

      iter #   2 total cpu time :   433.0 secs   av.it.:   9.3
      thresh= 1.919E-04 alpha_mix =  0.700 |ddv_scf|^2 =  1.897E-05

      iter #   3 total cpu time :   461.6 secs   av.it.:   8.0
      thresh= 4.355E-04 alpha_mix =  0.700 |ddv_scf|^2 =  4.193E-08

      iter #   4 total cpu time :   484.8 secs   av.it.:   9.0
      thresh= 2.048E-05 alpha_mix =  0.700 |ddv_scf|^2 =  5.028E-10

      iter #   5 total cpu time :   503.8 secs   av.it.:   9.5
      thresh= 2.242E-06 alpha_mix =  0.700 |ddv_scf|^2 =  4.018E-11

      iter #   6 total cpu time :   523.9 secs   av.it.:   9.6
      thresh= 6.339E-07 alpha_mix =  0.700 |ddv_scf|^2 =  2.105E-12

      iter #   7 total cpu time :   544.6 secs   av.it.:   9.5
      thresh= 1.451E-07 alpha_mix =  0.700 |ddv_scf|^2 =  3.510E-14

      iter #   8 total cpu time :   564.5 secs   av.it.:   9.9
      thresh= 1.874E-08 alpha_mix =  0.700 |ddv_scf|^2 =  8.838E-14

      iter #   9 total cpu time :   585.9 secs   av.it.:   8.3
      thresh= 2.973E-08 alpha_mix =  0.700 |ddv_scf|^2 =  9.064E-15

      iter #  10 total cpu time :   610.6 secs   av.it.:   8.8
      thresh= 9.521E-09 alpha_mix =  0.700 |ddv_scf|^2 =  3.482E-15

      iter #  11 total cpu time :   631.0 secs   av.it.:   8.6
      thresh= 5.901E-09 alpha_mix =  0.700 |ddv_scf|^2 =  3.164E-17

     End of self-consistent calculation

     Convergence has been achieved 


     Representation #   3 mode #   3

     Self-consistent Calculation

      iter #   1 total cpu time :   648.8 secs   av.it.:   6.9
      thresh= 1.000E-02 alpha_mix =  0.700 |ddv_scf|^2 =  2.488E-04

      iter #   2 total cpu time :   663.6 secs   av.it.:   9.4
      thresh= 1.577E-03 alpha_mix =  0.700 |ddv_scf|^2 =  1.290E-03

      iter #   3 total cpu time :   682.8 secs   av.it.:   8.0
      thresh= 3.592E-03 alpha_mix =  0.700 |ddv_scf|^2 =  4.667E-06

      iter #   4 total cpu time :   700.7 secs   av.it.:   9.0
      thresh= 2.160E-04 alpha_mix =  0.700 |ddv_scf|^2 =  2.199E-08

      iter #   5 total cpu time :   713.1 secs   av.it.:   9.7
      thresh= 1.483E-05 alpha_mix =  0.700 |ddv_scf|^2 =  1.608E-09

      iter #   6 total cpu time :   734.6 secs   av.it.:   9.3
      thresh= 4.010E-06 alpha_mix =  0.700 |ddv_scf|^2 =  1.622E-10

      iter #   7 total cpu time :   752.1 secs   av.it.:   9.2
      thresh= 1.273E-06 alpha_mix =  0.700 |ddv_scf|^2 =  6.401E-12

      iter #   8 total cpu time :   772.6 secs   av.it.:   9.7
      thresh= 2.530E-07 alpha_mix =  0.700 |ddv_scf|^2 =  3.631E-13

      iter #   9 total cpu time :   786.3 secs   av.it.:   9.2
      thresh= 6.025E-08 alpha_mix =  0.700 |ddv_scf|^2 =  1.322E-13

      iter #  10 total cpu time :   810.5 secs   av.it.:   8.6
      thresh= 3.636E-08 alpha_mix =  0.700 |ddv_scf|^2 =  9.919E-15

      iter #  11 total cpu time :   835.3 secs   av.it.:   8.8
      thresh= 9.959E-09 alpha_mix =  0.700 |ddv_scf|^2 =  3.627E-15

      iter #  12 total cpu time :   855.1 secs   av.it.:   8.8
      thresh= 6.022E-09 alpha_mix =  0.700 |ddv_scf|^2 =  1.282E-16

      iter #  13 total cpu time :   871.1 secs   av.it.:   9.5
      thresh= 1.132E-09 alpha_mix =  0.700 |ddv_scf|^2 =  8.356E-18

     End of self-consistent calculation

     Convergence has been achieved 


     Representation #   4 mode #   4

     Self-consistent Calculation

      iter #   1 total cpu time :   890.6 secs   av.it.:   4.3
      thresh= 1.000E-02 alpha_mix =  0.700 |ddv_scf|^2 =  3.799E-06

      iter #   2 total cpu time :   901.9 secs   av.it.:   9.4
      thresh= 1.949E-04 alpha_mix =  0.700 |ddv_scf|^2 =  1.987E-05

      iter #   3 total cpu time :   921.3 secs   av.it.:   8.0
      thresh= 4.457E-04 alpha_mix =  0.700 |ddv_scf|^2 =  3.207E-08

      iter #   4 total cpu time :   936.3 secs   av.it.:   9.3
      thresh= 1.791E-05 alpha_mix =  0.700 |ddv_scf|^2 =  1.140E-09

      iter #   5 total cpu time :   955.0 secs   av.it.:   9.3
      thresh= 3.377E-06 alpha_mix =  0.700 |ddv_scf|^2 =  2.218E-11

      iter #   6 total cpu time :   971.3 secs   av.it.:   9.7
      thresh= 4.710E-07 alpha_mix =  0.700 |ddv_scf|^2 =  3.283E-12

      iter #   7 total cpu time :   995.0 secs   av.it.:   9.5
      thresh= 1.812E-07 alpha_mix =  0.700 |ddv_scf|^2 =  5.591E-14

      iter #   8 total cpu time :  1027.0 secs   av.it.:   9.8
      thresh= 2.365E-08 alpha_mix =  0.700 |ddv_scf|^2 =  8.682E-14

      iter #   9 total cpu time :  1055.7 secs   av.it.:   8.4
      thresh= 2.947E-08 alpha_mix =  0.700 |ddv_scf|^2 =  1.211E-14

      iter #  10 total cpu time :  1081.3 secs   av.it.:   8.8
      thresh= 1.100E-08 alpha_mix =  0.700 |ddv_scf|^2 =  5.620E-15

      iter #  11 total cpu time :  1095.7 secs   av.it.:   8.5
      thresh= 7.497E-09 alpha_mix =  0.700 |ddv_scf|^2 =  5.634E-17

     End of self-consistent calculation

     Convergence has been achieved 


     Representation #   5 mode #   5

     Self-consistent Calculation

      iter #   1 total cpu time :  1115.0 secs   av.it.:   4.1
      thresh= 1.000E-02 alpha_mix =  0.700 |ddv_scf|^2 =  1.965E-06

      iter #   2 total cpu time :  1127.0 secs   av.it.:   9.5
      thresh= 1.402E-04 alpha_mix =  0.700 |ddv_scf|^2 =  9.077E-06

      iter #   3 total cpu time :  1140.8 secs   av.it.:   8.1
      thresh= 3.013E-04 alpha_mix =  0.700 |ddv_scf|^2 =  7.239E-08

      iter #   4 total cpu time :  1157.8 secs   av.it.:   9.0
      thresh= 2.691E-05 alpha_mix =  0.700 |ddv_scf|^2 =  6.531E-10

      iter #   5 total cpu time :  1186.4 secs   av.it.:   9.6
      thresh= 2.556E-06 alpha_mix =  0.700 |ddv_scf|^2 =  6.455E-11

      iter #   6 total cpu time :  1200.9 secs   av.it.:   9.6
      thresh= 8.034E-07 alpha_mix =  0.700 |ddv_scf|^2 =  2.684E-12

      iter #   7 total cpu time :  1230.3 secs   av.it.:   9.7
      thresh= 1.638E-07 alpha_mix =  0.700 |ddv_scf|^2 =  1.169E-13

      iter #   8 total cpu time :  1255.1 secs   av.it.:   9.7
      thresh= 3.420E-08 alpha_mix =  0.700 |ddv_scf|^2 =  2.077E-14

      iter #   9 total cpu time :  1278.2 secs   av.it.:   9.1
      thresh= 1.441E-08 alpha_mix =  0.700 |ddv_scf|^2 =  3.132E-14

      iter #  10 total cpu time :  1297.3 secs   av.it.:   8.2
      thresh= 1.770E-08 alpha_mix =  0.700 |ddv_scf|^2 =  2.358E-15

      iter #  11 total cpu time :  1316.1 secs   av.it.:   8.7
      thresh= 4.856E-09 alpha_mix =  0.700 |ddv_scf|^2 =  4.660E-16

      iter #  12 total cpu time :  1338.3 secs   av.it.:   9.2
      thresh= 2.159E-09 alpha_mix =  0.700 |ddv_scf|^2 =  3.849E-17

     End of self-consistent calculation

     Convergence has been achieved 


     Representation #   6 mode #   6

     Self-consistent Calculation

      iter #   1 total cpu time :  1354.2 secs   av.it.:   3.9
      thresh= 1.000E-02 alpha_mix =  0.700 |ddv_scf|^2 =  2.352E-06

      iter #   2 total cpu time :  1371.0 secs   av.it.:   9.2
      thresh= 1.534E-04 alpha_mix =  0.700 |ddv_scf|^2 =  1.040E-05

      iter #   3 total cpu time :  1391.9 secs   av.it.:   8.0
      thresh= 3.224E-04 alpha_mix =  0.700 |ddv_scf|^2 =  8.959E-08

      iter #   4 total cpu time :  1411.1 secs   av.it.:   8.9
      thresh= 2.993E-05 alpha_mix =  0.700 |ddv_scf|^2 =  8.717E-10

      iter #   5 total cpu time :  1430.7 secs   av.it.:   9.4
      thresh= 2.953E-06 alpha_mix =  0.700 |ddv_scf|^2 =  5.321E-11

      iter #   6 total cpu time :  1449.6 secs   av.it.:   9.5
      thresh= 7.295E-07 alpha_mix =  0.700 |ddv_scf|^2 =  4.788E-12

      iter #   7 total cpu time :  1467.5 secs   av.it.:   9.5
      thresh= 2.188E-07 alpha_mix =  0.700 |ddv_scf|^2 =  1.882E-13

      iter #   8 total cpu time :  1484.4 secs   av.it.:   9.7
      thresh= 4.339E-08 alpha_mix =  0.700 |ddv_scf|^2 =  1.433E-13

      iter #   9 total cpu time :  1510.3 secs   av.it.:   8.7
      thresh= 3.785E-08 alpha_mix =  0.700 |ddv_scf|^2 =  1.311E-13

      iter #  10 total cpu time :  1531.1 secs   av.it.:   8.3
      thresh= 3.621E-08 alpha_mix =  0.700 |ddv_scf|^2 =  9.467E-15

      iter #  11 total cpu time :  1552.0 secs   av.it.:   8.9
      thresh= 9.730E-09 alpha_mix =  0.700 |ddv_scf|^2 =  2.127E-16

      iter #  12 total cpu time :  1572.4 secs   av.it.:   9.6
      thresh= 1.459E-09 alpha_mix =  0.700 |ddv_scf|^2 =  4.998E-17

     End of self-consistent calculation

     Convergence has been achieved 


     Representation #   7 mode #   7

     Self-consistent Calculation

      iter #   1 total cpu time :  1596.0 secs   av.it.:   4.1
      thresh= 1.000E-02 alpha_mix =  0.700 |ddv_scf|^2 =  1.784E-06

      iter #   2 total cpu time :  1618.2 secs   av.it.:   9.5
      thresh= 1.336E-04 alpha_mix =  0.700 |ddv_scf|^2 =  8.272E-06

      iter #   3 total cpu time :  1636.6 secs   av.it.:   8.1
      thresh= 2.876E-04 alpha_mix =  0.700 |ddv_scf|^2 =  6.483E-08

      iter #   4 total cpu time :  1651.9 secs   av.it.:   9.2
      thresh= 2.546E-05 alpha_mix =  0.700 |ddv_scf|^2 =  7.404E-10

      iter #   5 total cpu time :  1677.5 secs   av.it.:   9.6
      thresh= 2.721E-06 alpha_mix =  0.700 |ddv_scf|^2 =  9.631E-11

      iter #   6 total cpu time :  1694.9 secs   av.it.:   9.6
      thresh= 9.814E-07 alpha_mix =  0.700 |ddv_scf|^2 =  3.030E-12

      iter #   7 total cpu time :  1717.3 secs   av.it.:   9.6
      thresh= 1.741E-07 alpha_mix =  0.700 |ddv_scf|^2 =  4.597E-14

      iter #   8 total cpu time :  1734.6 secs   av.it.:  10.0
      thresh= 2.144E-08 alpha_mix =  0.700 |ddv_scf|^2 =  2.831E-14

      iter #   9 total cpu time :  1759.3 secs   av.it.:   9.0
      thresh= 1.683E-08 alpha_mix =  0.700 |ddv_scf|^2 =  1.576E-14

      iter #  10 total cpu time :  1778.6 secs   av.it.:   8.6
      thresh= 1.255E-08 alpha_mix =  0.700 |ddv_scf|^2 =  8.403E-16

      iter #  11 total cpu time :  1802.2 secs   av.it.:   8.9
      thresh= 2.899E-09 alpha_mix =  0.700 |ddv_scf|^2 =  3.529E-16

      iter #  12 total cpu time :  1824.1 secs   av.it.:   8.7
      thresh= 1.879E-09 alpha_mix =  0.700 |ddv_scf|^2 =  5.007E-18

     End of self-consistent calculation

     Convergence has been achieved 


     Representation #   8 mode #   8

     Self-consistent Calculation

      iter #   1 total cpu time :  1849.1 secs   av.it.:   4.2
      thresh= 1.000E-02 alpha_mix =  0.700 |ddv_scf|^2 =  2.396E-06

      iter #   2 total cpu time :  1869.7 secs   av.it.:   9.3
      thresh= 1.548E-04 alpha_mix =  0.700 |ddv_scf|^2 =  1.085E-05

      iter #   3 total cpu time :  1891.1 secs   av.it.:   8.1
      thresh= 3.294E-04 alpha_mix =  0.700 |ddv_scf|^2 =  7.511E-08

      iter #   4 total cpu time :  1907.2 secs   av.it.:   9.0
      thresh= 2.741E-05 alpha_mix =  0.700 |ddv_scf|^2 =  1.187E-09

      iter #   5 total cpu time :  1931.6 secs   av.it.:   9.4
      thresh= 3.446E-06 alpha_mix =  0.700 |ddv_scf|^2 =  8.485E-11

      iter #   6 total cpu time :  1950.8 secs   av.it.:   9.5
      thresh= 9.211E-07 alpha_mix =  0.700 |ddv_scf|^2 =  4.641E-12

      iter #   7 total cpu time :  1970.5 secs   av.it.:   9.6
      thresh= 2.154E-07 alpha_mix =  0.700 |ddv_scf|^2 =  1.071E-13

      iter #   8 total cpu time :  1994.0 secs   av.it.:   9.7
      thresh= 3.273E-08 alpha_mix =  0.700 |ddv_scf|^2 =  9.963E-15

      iter #   9 total cpu time :  2013.1 secs   av.it.:   9.6
      thresh= 9.981E-09 alpha_mix =  0.700 |ddv_scf|^2 =  3.241E-14

      iter #  10 total cpu time :  2032.4 secs   av.it.:   8.2
      thresh= 1.800E-08 alpha_mix =  0.700 |ddv_scf|^2 =  7.197E-16

      iter #  11 total cpu time :  2049.4 secs   av.it.:   9.2
      thresh= 2.683E-09 alpha_mix =  0.700 |ddv_scf|^2 =  9.284E-17

     End of self-consistent calculation

     Convergence has been achieved 


     Representation #   9 mode #   9

     Self-consistent Calculation

      iter #   1 total cpu time :  2071.5 secs   av.it.:   6.8
      thresh= 1.000E-02 alpha_mix =  0.700 |ddv_scf|^2 =  2.074E-04

      iter #   2 total cpu time :  2100.2 secs   av.it.:   9.4
      thresh= 1.440E-03 alpha_mix =  0.700 |ddv_scf|^2 =  1.104E-03

      iter #   3 total cpu time :  2123.3 secs   av.it.:   8.0
      thresh= 3.323E-03 alpha_mix =  0.700 |ddv_scf|^2 =  1.706E-06

      iter #   4 total cpu time :  2136.8 secs   av.it.:   9.4
      thresh= 1.306E-04 alpha_mix =  0.700 |ddv_scf|^2 =  1.587E-08

      iter #   5 total cpu time :  2158.5 secs   av.it.:   9.7
      thresh= 1.260E-05 alpha_mix =  0.700 |ddv_scf|^2 =  1.001E-09

      iter #   6 total cpu time :  2174.6 secs   av.it.:   9.3
      thresh= 3.165E-06 alpha_mix =  0.700 |ddv_scf|^2 =  1.037E-10

      iter #   7 total cpu time :  2198.0 secs   av.it.:   9.4
      thresh= 1.019E-06 alpha_mix =  0.700 |ddv_scf|^2 =  1.379E-11

      iter #   8 total cpu time :  2226.3 secs   av.it.:   9.4
      thresh= 3.713E-07 alpha_mix =  0.700 |ddv_scf|^2 =  6.402E-13

      iter #   9 total cpu time :  2253.1 secs   av.it.:   9.0
      thresh= 8.001E-08 alpha_mix =  0.700 |ddv_scf|^2 =  2.083E-13

      iter #  10 total cpu time :  2273.5 secs   av.it.:   8.6
      thresh= 4.564E-08 alpha_mix =  0.700 |ddv_scf|^2 =  1.500E-14

      iter #  11 total cpu time :  2293.7 secs   av.it.:   8.7
      thresh= 1.225E-08 alpha_mix =  0.700 |ddv_scf|^2 =  2.628E-15

      iter #  12 total cpu time :  2313.8 secs   av.it.:   8.9
      thresh= 5.126E-09 alpha_mix =  0.700 |ddv_scf|^2 =  1.071E-16

      iter #  13 total cpu time :  2338.5 secs   av.it.:   9.6
      thresh= 1.035E-09 alpha_mix =  0.700 |ddv_scf|^2 =  5.073E-18

     End of self-consistent calculation

     Convergence has been achieved 


     Representation #  10 mode #  10

     Self-consistent Calculation

      iter #   1 total cpu time :  2361.4 secs   av.it.:   4.1
      thresh= 1.000E-02 alpha_mix =  0.700 |ddv_scf|^2 =  3.100E-06

      iter #   2 total cpu time :  2380.5 secs   av.it.:   9.3
      thresh= 1.761E-04 alpha_mix =  0.700 |ddv_scf|^2 =  1.520E-05

      iter #   3 total cpu time :  2400.3 secs   av.it.:   8.0
      thresh= 3.898E-04 alpha_mix =  0.700 |ddv_scf|^2 =  5.496E-08

      iter #   4 total cpu time :  2418.3 secs   av.it.:   9.2
      thresh= 2.344E-05 alpha_mix =  0.700 |ddv_scf|^2 =  9.796E-10

      iter #   5 total cpu time :  2439.8 secs   av.it.:   9.5
      thresh= 3.130E-06 alpha_mix =  0.700 |ddv_scf|^2 =  6.585E-11

      iter #   6 total cpu time :  2457.4 secs   av.it.:   9.7
      thresh= 8.115E-07 alpha_mix =  0.700 |ddv_scf|^2 =  4.037E-12

      iter #   7 total cpu time :  2478.1 secs   av.it.:   9.7
      thresh= 2.009E-07 alpha_mix =  0.700 |ddv_scf|^2 =  2.462E-13

      iter #   8 total cpu time :  2497.8 secs   av.it.:   9.7
      thresh= 4.961E-08 alpha_mix =  0.700 |ddv_scf|^2 =  4.626E-14

      iter #   9 total cpu time :  2518.8 secs   av.it.:   9.2
      thresh= 2.151E-08 alpha_mix =  0.700 |ddv_scf|^2 =  1.594E-13

      iter #  10 total cpu time :  2537.9 secs   av.it.:   8.1
      thresh= 3.993E-08 alpha_mix =  0.700 |ddv_scf|^2 =  2.233E-15

      iter #  11 total cpu time :  2559.5 secs   av.it.:   9.0
      thresh= 4.725E-09 alpha_mix =  0.700 |ddv_scf|^2 =  1.840E-16

      iter #  12 total cpu time :  2587.9 secs   av.it.:   9.6
      thresh= 1.357E-09 alpha_mix =  0.700 |ddv_scf|^2 =  3.059E-17

     End of self-consistent calculation

     Convergence has been achieved 


     Representation #  11 mode #  11

     Self-consistent Calculation

      iter #   1 total cpu time :  2606.8 secs   av.it.:   4.1
      thresh= 1.000E-02 alpha_mix =  0.700 |ddv_scf|^2 =  2.109E-06

      iter #   2 total cpu time :  2621.7 secs   av.it.:   9.4
      thresh= 1.452E-04 alpha_mix =  0.700 |ddv_scf|^2 =  1.084E-05

      iter #   3 total cpu time :  2643.2 secs   av.it.:   8.0
      thresh= 3.292E-04 alpha_mix =  0.700 |ddv_scf|^2 =  2.462E-08

      iter #   4 total cpu time :  2657.5 secs   av.it.:   9.2
      thresh= 1.569E-05 alpha_mix =  0.700 |ddv_scf|^2 =  5.584E-10

      iter #   5 total cpu time :  2683.1 secs   av.it.:   9.4
      thresh= 2.363E-06 alpha_mix =  0.700 |ddv_scf|^2 =  6.681E-11

      iter #   6 total cpu time :  2703.7 secs   av.it.:   9.5
      thresh= 8.174E-07 alpha_mix =  0.700 |ddv_scf|^2 =  2.017E-12

      iter #   7 total cpu time :  2731.1 secs   av.it.:   9.5
      thresh= 1.420E-07 alpha_mix =  0.700 |ddv_scf|^2 =  3.920E-14

      iter #   8 total cpu time :  2754.7 secs   av.it.:   9.9
      thresh= 1.980E-08 alpha_mix =  0.700 |ddv_scf|^2 =  6.585E-14

      iter #   9 total cpu time :  2774.4 secs   av.it.:   8.6
      thresh= 2.566E-08 alpha_mix =  0.700 |ddv_scf|^2 =  1.607E-14

      iter #  10 total cpu time :  2795.5 secs   av.it.:   8.6
      thresh= 1.268E-08 alpha_mix =  0.700 |ddv_scf|^2 =  3.036E-15

      iter #  11 total cpu time :  2814.1 secs   av.it.:   8.6
      thresh= 5.510E-09 alpha_mix =  0.700 |ddv_scf|^2 =  2.678E-17

     End of self-consistent calculation

     Convergence has been achieved 


     Representation #  12 mode #  12

     Self-consistent Calculation

      iter #   1 total cpu time :  2832.5 secs   av.it.:   3.6
      thresh= 1.000E-02 alpha_mix =  0.700 |ddv_scf|^2 =  4.284E-08

      iter #   2 total cpu time :  2848.1 secs   av.it.:   9.6
      thresh= 2.070E-05 alpha_mix =  0.700 |ddv_scf|^2 =  6.660E-09

      iter #   3 total cpu time :  2864.9 secs   av.it.:   9.3
      thresh= 8.161E-06 alpha_mix =  0.700 |ddv_scf|^2 =  4.439E-10

      iter #   4 total cpu time :  2882.0 secs   av.it.:   9.2
      thresh= 2.107E-06 alpha_mix =  0.700 |ddv_scf|^2 =  7.758E-12

      iter #   5 total cpu time :  2896.1 secs   av.it.:   9.4
      thresh= 2.785E-07 alpha_mix =  0.700 |ddv_scf|^2 =  1.460E-13

      iter #   6 total cpu time :  2920.8 secs   av.it.:   9.7
      thresh= 3.821E-08 alpha_mix =  0.700 |ddv_scf|^2 =  3.635E-15

      iter #   7 total cpu time :  2943.4 secs   av.it.:   9.8
      thresh= 6.029E-09 alpha_mix =  0.700 |ddv_scf|^2 =  1.098E-16

      iter #   8 total cpu time :  2983.6 secs   av.it.:   9.8
      thresh= 1.048E-09 alpha_mix =  0.700 |ddv_scf|^2 =  5.196E-18

     End of self-consistent calculation

     Convergence has been achieved 


     Representation #  13 mode #  13

     Self-consistent Calculation

      iter #   1 total cpu time :  3000.9 secs   av.it.:   3.6
      thresh= 1.000E-02 alpha_mix =  0.700 |ddv_scf|^2 =  5.872E-08

      iter #   2 total cpu time :  3016.9 secs   av.it.:   9.5
      thresh= 2.423E-05 alpha_mix =  0.700 |ddv_scf|^2 =  1.427E-08

      iter #   3 total cpu time :  3031.6 secs   av.it.:   9.1
      thresh= 1.195E-05 alpha_mix =  0.700 |ddv_scf|^2 =  3.139E-10

      iter #   4 total cpu time :  3058.8 secs   av.it.:   9.2
      thresh= 1.772E-06 alpha_mix =  0.700 |ddv_scf|^2 =  4.670E-12

      iter #   5 total cpu time :  3074.9 secs   av.it.:   8.8
      thresh= 2.161E-07 alpha_mix =  0.700 |ddv_scf|^2 =  6.339E-14

      iter #   6 total cpu time :  3094.2 secs   av.it.:   9.7
      thresh= 2.518E-08 alpha_mix =  0.700 |ddv_scf|^2 =  1.755E-15

      iter #   7 total cpu time :  3111.9 secs   av.it.:   9.7
      thresh= 4.189E-09 alpha_mix =  0.700 |ddv_scf|^2 =  5.589E-17

     End of self-consistent calculation

     Convergence has been achieved 


     Representation #  14 mode #  14

     Self-consistent Calculation

      iter #   1 total cpu time :  3130.8 secs   av.it.:   3.9
      thresh= 1.000E-02 alpha_mix =  0.700 |ddv_scf|^2 =  2.196E-07

      iter #   2 total cpu time :  3145.7 secs   av.it.:   9.5
      thresh= 4.687E-05 alpha_mix =  0.700 |ddv_scf|^2 =  6.392E-08

      iter #   3 total cpu time :  3166.5 secs   av.it.:   9.1
      thresh= 2.528E-05 alpha_mix =  0.700 |ddv_scf|^2 =  3.969E-10

      iter #   4 total cpu time :  3186.5 secs   av.it.:   9.4
      thresh= 1.992E-06 alpha_mix =  0.700 |ddv_scf|^2 =  8.631E-12

      iter #   5 total cpu time :  3201.8 secs   av.it.:   9.4
      thresh= 2.938E-07 alpha_mix =  0.700 |ddv_scf|^2 =  2.004E-13

      iter #   6 total cpu time :  3218.5 secs   av.it.:   9.6
      thresh= 4.477E-08 alpha_mix =  0.700 |ddv_scf|^2 =  6.627E-15

      iter #   7 total cpu time :  3237.7 secs   av.it.:   9.7
      thresh= 8.141E-09 alpha_mix =  0.700 |ddv_scf|^2 =  1.587E-16

      iter #   8 total cpu time :  3253.4 secs   av.it.:   9.7
      thresh= 1.260E-09 alpha_mix =  0.700 |ddv_scf|^2 =  7.326E-18

     End of self-consistent calculation

     Convergence has been achieved 


     Representation #  15 mode #  15

     Self-consistent Calculation

      iter #   1 total cpu time :  3269.5 secs   av.it.:   3.8
      thresh= 1.000E-02 alpha_mix =  0.700 |ddv_scf|^2 =  1.104E-07

      iter #   2 total cpu time :  3295.3 secs   av.it.:   9.5
      thresh= 3.323E-05 alpha_mix =  0.700 |ddv_scf|^2 =  2.977E-08

      iter #   3 total cpu time :  3311.5 secs   av.it.:   9.1
      thresh= 1.725E-05 alpha_mix =  0.700 |ddv_scf|^2 =  3.207E-10

      iter #   4 total cpu time :  3328.1 secs   av.it.:   9.4
      thresh= 1.791E-06 alpha_mix =  0.700 |ddv_scf|^2 =  6.941E-12

      iter #   5 total cpu time :  3353.0 secs   av.it.:   9.5
      thresh= 2.635E-07 alpha_mix =  0.700 |ddv_scf|^2 =  1.732E-13

      iter #   6 total cpu time :  3371.9 secs   av.it.:   9.7
      thresh= 4.161E-08 alpha_mix =  0.700 |ddv_scf|^2 =  3.634E-15

      iter #   7 total cpu time :  3389.6 secs   av.it.:   9.8
      thresh= 6.028E-09 alpha_mix =  0.700 |ddv_scf|^2 =  1.186E-16

      iter #   8 total cpu time :  3405.7 secs   av.it.:   9.6
      thresh= 1.089E-09 alpha_mix =  0.700 |ddv_scf|^2 =  5.337E-18

     End of self-consistent calculation

     Convergence has been achieved 


     Representation #  16 mode #  16

     Self-consistent Calculation

      iter #   1 total cpu time :  3418.9 secs   av.it.:   3.9
      thresh= 1.000E-02 alpha_mix =  0.700 |ddv_scf|^2 =  1.503E-07

      iter #   2 total cpu time :  3434.5 secs   av.it.:   9.5
      thresh= 3.877E-05 alpha_mix =  0.700 |ddv_scf|^2 =  3.831E-08

      iter #   3 total cpu time :  3458.4 secs   av.it.:   9.1
      thresh= 1.957E-05 alpha_mix =  0.700 |ddv_scf|^2 =  4.692E-10

      iter #   4 total cpu time :  3477.2 secs   av.it.:   9.5
      thresh= 2.166E-06 alpha_mix =  0.700 |ddv_scf|^2 =  1.164E-11

      iter #   5 total cpu time :  3498.9 secs   av.it.:   9.5
      thresh= 3.412E-07 alpha_mix =  0.700 |ddv_scf|^2 =  3.674E-13

      iter #   6 total cpu time :  3514.1 secs   av.it.:   9.6
      thresh= 6.062E-08 alpha_mix =  0.700 |ddv_scf|^2 =  7.875E-15

      iter #   7 total cpu time :  3540.2 secs   av.it.:   9.7
      thresh= 8.874E-09 alpha_mix =  0.700 |ddv_scf|^2 =  2.164E-16

      iter #   8 total cpu time :  3554.7 secs   av.it.:   9.6
      thresh= 1.471E-09 alpha_mix =  0.700 |ddv_scf|^2 =  9.286E-18

     End of self-consistent calculation

     Convergence has been achieved 


     Representation #  17 mode #  17

     Self-consistent Calculation

      iter #   1 total cpu time :  3571.1 secs   av.it.:   3.9
      thresh= 1.000E-02 alpha_mix =  0.700 |ddv_scf|^2 =  1.736E-07

      iter #   2 total cpu time :  3585.5 secs   av.it.:   9.5
      thresh= 4.166E-05 alpha_mix =  0.700 |ddv_scf|^2 =  5.016E-08

      iter #   3 total cpu time :  3601.2 secs   av.it.:   9.1
      thresh= 2.240E-05 alpha_mix =  0.700 |ddv_scf|^2 =  3.104E-10

      iter #   4 total cpu time :  3618.1 secs   av.it.:   9.5
      thresh= 1.762E-06 alpha_mix =  0.700 |ddv_scf|^2 =  7.934E-12

      iter #   5 total cpu time :  3631.2 secs   av.it.:   9.5
      thresh= 2.817E-07 alpha_mix =  0.700 |ddv_scf|^2 =  1.717E-13

      iter #   6 total cpu time :  3651.9 secs   av.it.:   9.7
      thresh= 4.143E-08 alpha_mix =  0.700 |ddv_scf|^2 =  4.190E-15

      iter #   7 total cpu time :  3666.5 secs   av.it.:   9.8
      thresh= 6.473E-09 alpha_mix =  0.700 |ddv_scf|^2 =  1.198E-16

      iter #   8 total cpu time :  3685.6 secs   av.it.:   9.6
      thresh= 1.095E-09 alpha_mix =  0.700 |ddv_scf|^2 =  6.114E-18

     End of self-consistent calculation

     Convergence has been achieved 


     Representation #  18 mode #  18

     Self-consistent Calculation

      iter #   1 total cpu time :  3702.1 secs   av.it.:   6.5
      thresh= 1.000E-02 alpha_mix =  0.700 |ddv_scf|^2 =  1.644E-05

      iter #   2 total cpu time :  3724.1 secs   av.it.:   9.6
      thresh= 4.055E-04 alpha_mix =  0.700 |ddv_scf|^2 =  5.251E-06

      iter #   3 total cpu time :  3747.8 secs   av.it.:   9.1
      thresh= 2.291E-04 alpha_mix =  0.700 |ddv_scf|^2 =  1.483E-08

      iter #   4 total cpu time :  3769.2 secs   av.it.:   9.6
      thresh= 1.218E-05 alpha_mix =  0.700 |ddv_scf|^2 =  6.654E-10

      iter #   5 total cpu time :  3812.9 secs   av.it.:   9.1
      thresh= 2.579E-06 alpha_mix =  0.700 |ddv_scf|^2 =  2.592E-12

      iter #   6 total cpu time :  3832.0 secs   av.it.:   9.2
      thresh= 1.610E-07 alpha_mix =  0.700 |ddv_scf|^2 =  2.325E-14

      iter #   7 total cpu time :  3852.7 secs   av.it.:   8.9
      thresh= 1.525E-08 alpha_mix =  0.700 |ddv_scf|^2 =  8.203E-16

      iter #   8 total cpu time :  3870.2 secs   av.it.:   9.2
      thresh= 2.864E-09 alpha_mix =  0.700 |ddv_scf|^2 =  7.808E-18

     End of self-consistent calculation

     Convergence has been achieved 


     Representation #  19 mode #  19

     Self-consistent Calculation

      iter #   1 total cpu time :  3888.4 secs   av.it.:   3.8
      thresh= 1.000E-02 alpha_mix =  0.700 |ddv_scf|^2 =  1.213E-07

      iter #   2 total cpu time :  3899.5 secs   av.it.:   9.5
      thresh= 3.483E-05 alpha_mix =  0.700 |ddv_scf|^2 =  3.008E-08

      iter #   3 total cpu time :  3923.2 secs   av.it.:   9.1
      thresh= 1.734E-05 alpha_mix =  0.700 |ddv_scf|^2 =  3.907E-10

      iter #   4 total cpu time :  3937.5 secs   av.it.:   9.3
      thresh= 1.977E-06 alpha_mix =  0.700 |ddv_scf|^2 =  1.167E-11

      iter #   5 total cpu time :  3963.0 secs   av.it.:   9.4
      thresh= 3.417E-07 alpha_mix =  0.700 |ddv_scf|^2 =  1.416E-13

      iter #   6 total cpu time :  3985.5 secs   av.it.:   9.7
      thresh= 3.763E-08 alpha_mix =  0.700 |ddv_scf|^2 =  6.692E-15

      iter #   7 total cpu time :  4003.3 secs   av.it.:   9.7
      thresh= 8.180E-09 alpha_mix =  0.700 |ddv_scf|^2 =  2.357E-16

      iter #   8 total cpu time :  4019.4 secs   av.it.:   9.7
      thresh= 1.535E-09 alpha_mix =  0.700 |ddv_scf|^2 =  5.808E-18

     End of self-consistent calculation

     Convergence has been achieved 


     Representation #  20 mode #  20

     Self-consistent Calculation

      iter #   1 total cpu time :  4036.8 secs   av.it.:   3.7
      thresh= 1.000E-02 alpha_mix =  0.700 |ddv_scf|^2 =  3.225E-08

      iter #   2 total cpu time :  4050.2 secs   av.it.:   9.4
      thresh= 1.796E-05 alpha_mix =  0.700 |ddv_scf|^2 =  2.037E-09

      iter #   3 total cpu time :  4069.8 secs   av.it.:   9.6
      thresh= 4.513E-06 alpha_mix =  0.700 |ddv_scf|^2 =  4.777E-10

      iter #   4 total cpu time :  4083.9 secs   av.it.:   9.2
      thresh= 2.186E-06 alpha_mix =  0.700 |ddv_scf|^2 =  7.311E-12

      iter #   5 total cpu time :  4103.9 secs   av.it.:   9.2
      thresh= 2.704E-07 alpha_mix =  0.700 |ddv_scf|^2 =  7.323E-14

      iter #   6 total cpu time :  4126.8 secs   av.it.:   9.5
      thresh= 2.706E-08 alpha_mix =  0.700 |ddv_scf|^2 =  1.879E-15

      iter #   7 total cpu time :  4147.6 secs   av.it.:   9.7
      thresh= 4.335E-09 alpha_mix =  0.700 |ddv_scf|^2 =  7.471E-17

     End of self-consistent calculation

     Convergence has been achieved 


     Representation #  21 mode #  21

     Self-consistent Calculation

      iter #   1 total cpu time :  4163.8 secs   av.it.:   3.7
      thresh= 1.000E-02 alpha_mix =  0.700 |ddv_scf|^2 =  7.443E-08

      iter #   2 total cpu time :  4223.5 secs   av.it.:   9.5
      thresh= 2.728E-05 alpha_mix =  0.700 |ddv_scf|^2 =  1.768E-08

      iter #   3 total cpu time :  4248.5 secs   av.it.:   9.1
      thresh= 1.330E-05 alpha_mix =  0.700 |ddv_scf|^2 =  3.481E-10

      iter #   4 total cpu time :  4270.6 secs   av.it.:   9.3
      thresh= 1.866E-06 alpha_mix =  0.700 |ddv_scf|^2 =  8.702E-12

      iter #   5 total cpu time :  4291.3 secs   av.it.:   9.3
      thresh= 2.950E-07 alpha_mix =  0.700 |ddv_scf|^2 =  1.311E-13

      iter #   6 total cpu time :  4308.0 secs   av.it.:   9.7
      thresh= 3.621E-08 alpha_mix =  0.700 |ddv_scf|^2 =  4.937E-15

      iter #   7 total cpu time :  4329.8 secs   av.it.:   9.8
      thresh= 7.027E-09 alpha_mix =  0.700 |ddv_scf|^2 =  1.808E-16

      iter #   8 total cpu time :  4370.5 secs   av.it.:   9.7
      thresh= 1.345E-09 alpha_mix =  0.700 |ddv_scf|^2 =  5.324E-18

     End of self-consistent calculation

     Convergence has been achieved 
 
     Number of q in the star =   24
     List of q in the star:
          1   0.324759526   0.324759526   0.216506351
          2  -0.324759526   0.216506351   0.324759526
          3   0.324759526   0.216506351   0.324759526
          4   0.324759526  -0.324759526   0.216506351
          5  -0.324759526  -0.324759526   0.216506351
          6  -0.324759526   0.324759526   0.216506351
          7   0.324759526  -0.216506351  -0.324759526
          8  -0.324759526  -0.216506351   0.324759526
          9   0.216506351  -0.324759526  -0.324759526
         10  -0.216506351   0.324759526  -0.324759526
         11   0.216506351   0.324759526   0.324759526
         12  -0.324759526   0.324759526  -0.216506351
         13   0.324759526  -0.324759526  -0.216506351
         14  -0.216506351  -0.324759526   0.324759526
         15  -0.324759526   0.216506351  -0.324759526
         16  -0.324759526  -0.216506351  -0.324759526
         17   0.324759526   0.216506351  -0.324759526
         18   0.324759526  -0.216506351   0.324759526
         19  -0.324759526  -0.324759526  -0.216506351
         20   0.324759526   0.324759526  -0.216506351
         21   0.216506351  -0.324759526   0.324759526
         22  -0.216506351  -0.324759526  -0.324759526
         23   0.216506351   0.324759526  -0.324759526
         24  -0.216506351   0.324759526   0.324759526

     Diagonalizing the dynamical matrix

     q = (    0.324759526   0.324759526   0.216506351 ) 

 **************************************************************************
     freq (    1) =       9.066566 [THz] =     302.428076 [cm-1]
     freq (    2) =       9.564154 [THz] =     319.025852 [cm-1]
     freq (    3) =      13.157361 [THz] =     438.882328 [cm-1]
     freq (    4) =      26.083898 [THz] =     870.065190 [cm-1]
     freq (    5) =      29.093871 [THz] =     970.467079 [cm-1]
     freq (    6) =      29.726568 [THz] =     991.571570 [cm-1]
     freq (    7) =      31.719954 [THz] =    1058.063781 [cm-1]
     freq (    8) =      36.543247 [THz] =    1218.951509 [cm-1]
     freq (    9) =      39.447515 [THz] =    1315.827457 [cm-1]
     freq (   10) =      39.789616 [THz] =    1327.238734 [cm-1]
     freq (   11) =      40.786814 [THz] =    1360.501685 [cm-1]
     freq (   12) =      42.508552 [THz] =    1417.932654 [cm-1]
     freq (   13) =      43.382591 [THz] =    1447.087470 [cm-1]
     freq (   14) =      44.542283 [THz] =    1485.770625 [cm-1]
     freq (   15) =      45.270043 [THz] =    1510.046108 [cm-1]
     freq (   16) =      45.733404 [THz] =    1525.502140 [cm-1]
     freq (   17) =      46.696170 [THz] =    1557.616570 [cm-1]
     freq (   18) =      47.041417 [THz] =    1569.132762 [cm-1]
     freq (   19) =      49.991912 [THz] =    1667.550686 [cm-1]
     freq (   20) =      53.768282 [THz] =    1793.516849 [cm-1]
     freq (   21) =      55.786269 [THz] =    1860.829626 [cm-1]
 **************************************************************************

     Mode symmetry, C_s (m)     point group:

     freq (   1-   1) =        302.4  [cm-1]   --> A'                 
     freq (   2-   2) =        319.0  [cm-1]   --> A''                
     freq (   3-   3) =        438.9  [cm-1]   --> A'                 
     freq (   4-   4) =        870.1  [cm-1]   --> A'                 
     freq (   5-   5) =        970.5  [cm-1]   --> A''                
     freq (   6-   6) =        991.6  [cm-1]   --> A''                
     freq (   7-   7) =       1058.1  [cm-1]   --> A'                 
     freq (   8-   8) =       1219.0  [cm-1]   --> A'                 
     freq (   9-   9) =       1315.8  [cm-1]   --> A''                
     freq (  10-  10) =       1327.2  [cm-1]   --> A'                 
     freq (  11-  11) =       1360.5  [cm-1]   --> A''                
     freq (  12-  12) =       1417.9  [cm-1]   --> A'                 
     freq (  13-  13) =       1447.1  [cm-1]   --> A''                
     freq (  14-  14) =       1485.8  [cm-1]   --> A'                 
     freq (  15-  15) =       1510.0  [cm-1]   --> A'                 
     freq (  16-  16) =       1525.5  [cm-1]   --> A''                
     freq (  17-  17) =       1557.6  [cm-1]   --> A'                 
     freq (  18-  18) =       1569.1  [cm-1]   --> A''                
     freq (  19-  19) =       1667.6  [cm-1]   --> A''                
     freq (  20-  20) =       1793.5  [cm-1]   --> A'                 
     freq (  21-  21) =       1860.8  [cm-1]   --> A''                
     electron-phonon interaction  ...

     Gaussian Broadening:   0.005 Ry, ngauss=   0
     DOS =  1.900675 states/spin/Ry/Unit Cell at Ef= 17.155196 eV
     lambda(    1)=  0.1912   gamma=   28.52 GHz
     lambda(    2)=  0.0293   gamma=    4.87 GHz
     lambda(    3)=  0.0146   gamma=    4.59 GHz
     lambda(    4)=  0.8047   gamma=  993.68 GHz
     lambda(    5)=  0.6077   gamma=  933.68 GHz
     lambda(    6)=  0.1393   gamma=  223.35 GHz
     lambda(    7)=  0.7210   gamma= 1316.73 GHz
     lambda(    8)=  0.0780   gamma=  189.07 GHz
     lambda(    9)=  0.0107   gamma=   30.31 GHz
     lambda(   10)=  0.0147   gamma=   42.27 GHz
     lambda(   11)=  0.0181   gamma=   54.63 GHz
     lambda(   12)=  0.0025   gamma=    8.20 GHz
     lambda(   13)=  0.0035   gamma=   11.84 GHz
     lambda(   14)=  0.0144   gamma=   51.82 GHz
     lambda(   15)=  0.0184   gamma=   68.38 GHz
     lambda(   16)=  0.0065   gamma=   24.62 GHz
     lambda(   17)=  0.0062   gamma=   24.71 GHz
     lambda(   18)=  0.0091   gamma=   36.68 GHz
     lambda(   19)=  0.0075   gamma=   33.87 GHz
     lambda(   20)=  0.0166   gamma=   87.14 GHz
     lambda(   21)=  0.0046   gamma=   25.91 GHz
     Gaussian Broadening:   0.010 Ry, ngauss=   0
     DOS =  2.130656 states/spin/Ry/Unit Cell at Ef= 17.149400 eV
     lambda(    1)=  0.1647   gamma=   27.54 GHz
     lambda(    2)=  0.0505   gamma=    9.39 GHz
     lambda(    3)=  0.0197   gamma=    6.93 GHz
     lambda(    4)=  0.6869   gamma=  950.89 GHz
     lambda(    5)=  0.5479   gamma=  943.69 GHz
     lambda(    6)=  0.3624   gamma=  651.59 GHz
     lambda(    7)=  0.5344   gamma= 1093.92 GHz
     lambda(    8)=  0.1014   gamma=  275.55 GHz
     lambda(    9)=  0.0166   gamma=   52.52 GHz
     lambda(   10)=  0.0162   gamma=   52.34 GHz
     lambda(   11)=  0.0252   gamma=   85.27 GHz
     lambda(   12)=  0.0065   gamma=   24.04 GHz
     lambda(   13)=  0.0051   gamma=   19.42 GHz
     lambda(   14)=  0.0338   gamma=  136.47 GHz
     lambda(   15)=  0.0183   gamma=   76.45 GHz
     lambda(   16)=  0.0092   gamma=   39.28 GHz
     lambda(   17)=  0.0105   gamma=   46.79 GHz
     lambda(   18)=  0.0110   gamma=   49.59 GHz
     lambda(   19)=  0.0143   gamma=   72.64 GHz
     lambda(   20)=  0.0258   gamma=  151.54 GHz
     lambda(   21)=  0.0152   gamma=   96.27 GHz
     Gaussian Broadening:   0.015 Ry, ngauss=   0
     DOS =  2.235086 states/spin/Ry/Unit Cell at Ef= 17.146382 eV
     lambda(    1)=  0.1522   gamma=   26.70 GHz
     lambda(    2)=  0.0525   gamma=   10.25 GHz
     lambda(    3)=  0.0189   gamma=    6.99 GHz
     lambda(    4)=  0.6526   gamma=  947.75 GHz
     lambda(    5)=  0.4906   gamma=  886.27 GHz
     lambda(    6)=  0.3867   gamma=  729.39 GHz
     lambda(    7)=  0.4908   gamma= 1053.94 GHz
     lambda(    8)=  0.1003   gamma=  285.91 GHz
     lambda(    9)=  0.0172   gamma=   56.98 GHz
     lambda(   10)=  0.0167   gamma=   56.42 GHz
     lambda(   11)=  0.0264   gamma=   93.71 GHz
     lambda(   12)=  0.0081   gamma=   31.13 GHz
     lambda(   13)=  0.0055   gamma=   22.08 GHz
     lambda(   14)=  0.0375   gamma=  158.64 GHz
     lambda(   15)=  0.0199   gamma=   87.26 GHz
     lambda(   16)=  0.0096   gamma=   42.99 GHz
     lambda(   17)=  0.0101   gamma=   47.11 GHz
     lambda(   18)=  0.0109   gamma=   51.41 GHz
     lambda(   19)=  0.0158   gamma=   84.33 GHz
     lambda(   20)=  0.0280   gamma=  172.61 GHz
     lambda(   21)=  0.0162   gamma=  107.33 GHz
     Gaussian Broadening:   0.020 Ry, ngauss=   0
     DOS =  2.290454 states/spin/Ry/Unit Cell at Ef= 17.145317 eV
     lambda(    1)=  0.1372   gamma=   24.67 GHz
     lambda(    2)=  0.0493   gamma=    9.86 GHz
     lambda(    3)=  0.0180   gamma=    6.82 GHz
     lambda(    4)=  0.6195   gamma=  921.96 GHz
     lambda(    5)=  0.4675   gamma=  865.45 GHz
     lambda(    6)=  0.3837   gamma=  741.56 GHz
     lambda(    7)=  0.4465   gamma=  982.57 GHz
     lambda(    8)=  0.0966   gamma=  282.04 GHz
     lambda(    9)=  0.0174   gamma=   59.26 GHz
     lambda(   10)=  0.0166   gamma=   57.36 GHz
     lambda(   11)=  0.0258   gamma=   93.97 GHz
     lambda(   12)=  0.0094   gamma=   37.35 GHz
     lambda(   13)=  0.0058   gamma=   23.84 GHz
     lambda(   14)=  0.0384   gamma=  166.64 GHz
     lambda(   15)=  0.0255   gamma=  114.41 GHz
     lambda(   16)=  0.0095   gamma=   43.38 GHz
     lambda(   17)=  0.0098   gamma=   46.70 GHz
     lambda(   18)=  0.0108   gamma=   52.11 GHz
     lambda(   19)=  0.0158   gamma=   86.43 GHz
     lambda(   20)=  0.0278   gamma=  175.68 GHz
     lambda(   21)=  0.0160   gamma=  109.11 GHz
     Gaussian Broadening:   0.025 Ry, ngauss=   0
     DOS =  2.332190 states/spin/Ry/Unit Cell at Ef= 17.144758 eV
     lambda(    1)=  0.1275   gamma=   23.33 GHz
     lambda(    2)=  0.0473   gamma=    9.63 GHz
     lambda(    3)=  0.0177   gamma=    6.82 GHz
     lambda(    4)=  0.6005   gamma=  909.93 GHz
     lambda(    5)=  0.4608   gamma=  868.68 GHz
     lambda(    6)=  0.3862   gamma=  759.98 GHz
     lambda(    7)=  0.4141   gamma=  927.98 GHz
     lambda(    8)=  0.0944   gamma=  280.67 GHz
     lambda(    9)=  0.0179   gamma=   61.93 GHz
     lambda(   10)=  0.0166   gamma=   58.63 GHz
     lambda(   11)=  0.0253   gamma=   93.72 GHz
     lambda(   12)=  0.0108   gamma=   43.43 GHz
     lambda(   13)=  0.0061   gamma=   25.43 GHz
     lambda(   14)=  0.0393   gamma=  173.55 GHz
     lambda(   15)=  0.0317   gamma=  144.78 GHz
     lambda(   16)=  0.0093   gamma=   43.50 GHz
     lambda(   17)=  0.0098   gamma=   47.45 GHz
     lambda(   18)=  0.0108   gamma=   53.46 GHz
     lambda(   19)=  0.0157   gamma=   87.32 GHz
     lambda(   20)=  0.0277   gamma=  178.13 GHz
     lambda(   21)=  0.0162   gamma=  112.25 GHz
     Gaussian Broadening:   0.030 Ry, ngauss=   0
     DOS =  2.360595 states/spin/Ry/Unit Cell at Ef= 17.144134 eV
     lambda(    1)=  0.1222   gamma=   22.65 GHz
     lambda(    2)=  0.0465   gamma=    9.58 GHz
     lambda(    3)=  0.0176   gamma=    6.87 GHz
     lambda(    4)=  0.5880   gamma=  901.84 GHz
     lambda(    5)=  0.4578   gamma=  873.59 GHz
     lambda(    6)=  0.3902   gamma=  777.23 GHz
     lambda(    7)=  0.3933   gamma=  891.99 GHz
     lambda(    8)=  0.0927   gamma=  279.04 GHz
     lambda(    9)=  0.0182   gamma=   63.98 GHz
     lambda(   10)=  0.0167   gamma=   59.71 GHz
     lambda(   11)=  0.0249   gamma=   93.29 GHz
     lambda(   12)=  0.0118   gamma=   48.05 GHz
     lambda(   13)=  0.0063   gamma=   26.60 GHz
     lambda(   14)=  0.0398   gamma=  178.04 GHz
     lambda(   15)=  0.0365   gamma=  168.65 GHz
     lambda(   16)=  0.0092   gamma=   43.40 GHz
     lambda(   17)=  0.0098   gamma=   47.96 GHz
     lambda(   18)=  0.0110   gamma=   55.11 GHz
     lambda(   19)=  0.0156   gamma=   87.63 GHz
     lambda(   20)=  0.0276   gamma=  179.78 GHz
     lambda(   21)=  0.0165   gamma=  115.55 GHz
     Gaussian Broadening:   0.035 Ry, ngauss=   0
     DOS =  2.381114 states/spin/Ry/Unit Cell at Ef= 17.143351 eV
     lambda(    1)=  0.1196   gamma=   22.36 GHz
     lambda(    2)=  0.0463   gamma=    9.62 GHz
     lambda(    3)=  0.0177   gamma=    6.95 GHz
     lambda(    4)=  0.5777   gamma=  893.75 GHz
     lambda(    5)=  0.4550   gamma=  875.68 GHz
     lambda(    6)=  0.3934   gamma=  790.44 GHz
     lambda(    7)=  0.3794   gamma=  868.04 GHz
     lambda(    8)=  0.0914   gamma=  277.50 GHz
     lambda(    9)=  0.0185   gamma=   65.48 GHz
     lambda(   10)=  0.0168   gamma=   60.53 GHz
     lambda(   11)=  0.0245   gamma=   92.76 GHz
     lambda(   12)=  0.0125   gamma=   51.26 GHz
     lambda(   13)=  0.0064   gamma=   27.52 GHz
     lambda(   14)=  0.0401   gamma=  180.77 GHz
     lambda(   15)=  0.0399   gamma=  185.81 GHz
     lambda(   16)=  0.0091   gamma=   43.15 GHz
     lambda(   17)=  0.0097   gamma=   48.07 GHz
     lambda(   18)=  0.0113   gamma=   56.98 GHz
     lambda(   19)=  0.0154   gamma=   87.66 GHz
     lambda(   20)=  0.0275   gamma=  180.77 GHz
     lambda(   21)=  0.0168   gamma=  118.87 GHz
     Gaussian Broadening:   0.040 Ry, ngauss=   0
     DOS =  2.398900 states/spin/Ry/Unit Cell at Ef= 17.142416 eV
     lambda(    1)=  0.1184   gamma=   22.30 GHz
     lambda(    2)=  0.0463   gamma=    9.69 GHz
     lambda(    3)=  0.0178   gamma=    7.07 GHz
     lambda(    4)=  0.5681   gamma=  885.44 GHz
     lambda(    5)=  0.4515   gamma=  875.48 GHz
     lambda(    6)=  0.3954   gamma=  800.40 GHz
     lambda(    7)=  0.3692   gamma=  851.01 GHz
     lambda(    8)=  0.0905   gamma=  276.96 GHz
     lambda(    9)=  0.0187   gamma=   66.77 GHz
     lambda(   10)=  0.0169   gamma=   61.39 GHz
     lambda(   11)=  0.0242   gamma=   92.25 GHz
     lambda(   12)=  0.0129   gamma=   53.60 GHz
     lambda(   13)=  0.0066   gamma=   28.38 GHz
     lambda(   14)=  0.0403   gamma=  183.23 GHz
     lambda(   15)=  0.0423   gamma=  198.69 GHz
     lambda(   16)=  0.0090   gamma=   42.88 GHz
     lambda(   17)=  0.0096   gamma=   47.99 GHz
     lambda(   18)=  0.0116   gamma=   58.98 GHz
     lambda(   19)=  0.0153   gamma=   87.70 GHz
     lambda(   20)=  0.0274   gamma=  181.64 GHz
     lambda(   21)=  0.0172   gamma=  122.46 GHz
     Gaussian Broadening:   0.045 Ry, ngauss=   0
     DOS =  2.416850 states/spin/Ry/Unit Cell at Ef= 17.141341 eV
     lambda(    1)=  0.1179   gamma=   22.37 GHz
     lambda(    2)=  0.0464   gamma=    9.80 GHz
     lambda(    3)=  0.0181   gamma=    7.24 GHz
     lambda(    4)=  0.5589   gamma=  877.64 GHz
     lambda(    5)=  0.4475   gamma=  874.13 GHz
     lambda(    6)=  0.3963   gamma=  808.30 GHz
     lambda(    7)=  0.3609   gamma=  838.07 GHz
     lambda(    8)=  0.0902   gamma=  277.92 GHz
     lambda(    9)=  0.0190   gamma=   68.10 GHz
     lambda(   10)=  0.0171   gamma=   62.59 GHz
     lambda(   11)=  0.0239   gamma=   91.84 GHz
     lambda(   12)=  0.0133   gamma=   55.50 GHz
     lambda(   13)=  0.0067   gamma=   29.25 GHz
     lambda(   14)=  0.0407   gamma=  186.53 GHz
     lambda(   15)=  0.0442   gamma=  209.29 GHz
     lambda(   16)=  0.0088   gamma=   42.68 GHz
     lambda(   17)=  0.0095   gamma=   47.91 GHz
     lambda(   18)=  0.0120   gamma=   61.09 GHz
     lambda(   19)=  0.0152   gamma=   87.92 GHz
     lambda(   20)=  0.0274   gamma=  182.83 GHz
     lambda(   21)=  0.0176   gamma=  126.50 GHz
     Gaussian Broadening:   0.050 Ry, ngauss=   0
     DOS =  2.436152 states/spin/Ry/Unit Cell at Ef= 17.140123 eV
     lambda(    1)=  0.1179   gamma=   22.56 GHz
     lambda(    2)=  0.0466   gamma=    9.92 GHz
     lambda(    3)=  0.0186   gamma=    7.48 GHz
     lambda(    4)=  0.5503   gamma=  870.96 GHz
     lambda(    5)=  0.4430   gamma=  872.43 GHz
     lambda(    6)=  0.3964   gamma=  814.82 GHz
     lambda(    7)=  0.3537   gamma=  827.91 GHz
     lambda(    8)=  0.0903   gamma=  280.64 GHz
     lambda(    9)=  0.0192   gamma=   69.63 GHz
     lambda(   10)=  0.0175   gamma=   64.28 GHz
     lambda(   11)=  0.0237   gamma=   91.60 GHz
     lambda(   12)=  0.0136   gamma=   57.25 GHz
     lambda(   13)=  0.0069   gamma=   30.17 GHz
     lambda(   14)=  0.0414   gamma=  191.10 GHz
     lambda(   15)=  0.0459   gamma=  218.79 GHz
     lambda(   16)=  0.0088   gamma=   42.61 GHz
     lambda(   17)=  0.0095   gamma=   47.97 GHz
     lambda(   18)=  0.0123   gamma=   63.25 GHz
     lambda(   19)=  0.0152   gamma=   88.43 GHz
     lambda(   20)=  0.0274   gamma=  184.59 GHz
     lambda(   21)=  0.0181   gamma=  131.03 GHz
 
 
     Number of q in the star =   24
     List of q in the star:
          1   0.324759526   0.324759526   0.216506351
          2  -0.324759526   0.216506351   0.324759526
          3   0.324759526   0.216506351   0.324759526
          4   0.324759526  -0.324759526   0.216506351
          5  -0.324759526  -0.324759526   0.216506351
          6  -0.324759526   0.324759526   0.216506351
          7   0.324759526  -0.216506351  -0.324759526
          8  -0.324759526  -0.216506351   0.324759526
          9   0.216506351  -0.324759526  -0.324759526
         10  -0.216506351   0.324759526  -0.324759526
         11   0.216506351   0.324759526   0.324759526
         12  -0.324759526   0.324759526  -0.216506351
         13   0.324759526  -0.324759526  -0.216506351
         14  -0.216506351  -0.324759526   0.324759526
         15  -0.324759526   0.216506351  -0.324759526
         16  -0.324759526  -0.216506351  -0.324759526
         17   0.324759526   0.216506351  -0.324759526
         18   0.324759526  -0.216506351   0.324759526
         19  -0.324759526  -0.324759526  -0.216506351
         20   0.324759526   0.324759526  -0.216506351
         21   0.216506351  -0.324759526   0.324759526
         22  -0.216506351  -0.324759526  -0.324759526
         23   0.216506351   0.324759526  -0.324759526
         24  -0.216506351   0.324759526   0.324759526
 
     init_run     :      0.07s CPU      0.31s WALL (       1 calls)
     electrons    :    126.44s CPU    136.48s WALL (       1 calls)

     Called by init_run:
     wfcinit      :      0.00s CPU      0.08s WALL (       1 calls)
     potinit      :      0.01s CPU      0.14s WALL (       1 calls)
     hinit0       :      0.03s CPU      0.04s WALL (       1 calls)

     Called by electrons:
     c_bands      :    126.41s CPU    136.44s WALL (       1 calls)
     v_of_rho     :      0.01s CPU      0.02s WALL (       2 calls)
     newd         :      0.01s CPU      0.03s WALL (       2 calls)

     Called by c_bands:
     init_us_2    :      3.66s CPU      4.09s WALL (  138720 calls)
     cegterg      :     16.79s CPU     18.12s WALL (    1105 calls)

     Called by *egterg:
     cdiaghg      :      5.84s CPU      6.32s WALL (   17239 calls)
     h_psi        :   1333.83s CPU   1607.93s WALL ( 1563804 calls)
     s_psi        :     31.75s CPU     35.94s WALL ( 3221872 calls)
     g_psi        :      0.05s CPU      0.05s WALL (   16151 calls)

     Called by h_psi:
     h_psi:calbec :     28.61s CPU     32.10s WALL ( 1563804 calls)
     vloc_psi     :   1276.65s CPU   1543.62s WALL ( 1563804 calls)
     add_vuspsi   :     15.22s CPU     17.19s WALL ( 1563804 calls)

     General routines
     calbec       :     84.00s CPU     91.60s WALL ( 3399216 calls)
     fft          :      0.69s CPU      0.89s WALL (    4023 calls)
     ffts         :      0.66s CPU      0.74s WALL (   12323 calls)
     fftw         :   1799.44s CPU   2203.93s WALL (21341944 calls)
     interpolate  :      0.16s CPU      0.18s WALL (     437 calls)
     davcio       :     21.30s CPU    558.29s WALL (  604161 calls)
 
     Parallel routines
 
     PHONON       :  55m 9.70s CPU      1h13m WALL

     INITIALIZATION: 
     phq_setup    :      0.01s CPU      0.04s WALL (       1 calls)
     phq_init     :     18.18s CPU     20.56s WALL (       1 calls)
 
     phq_init     :     18.18s CPU     20.56s WALL (       1 calls)
     set_drhoc    :      0.04s CPU      0.05s WALL (       3 calls)
     init_vloc    :      0.00s CPU      0.02s WALL (       2 calls)
     init_us_1    :      0.05s CPU      0.83s WALL (       2 calls)
     newd         :      0.01s CPU      0.03s WALL (       2 calls)
     dvanqq       :      0.18s CPU      0.18s WALL (       1 calls)
     drho         :     12.33s CPU     13.93s WALL (       1 calls)
 
     DYNAMICAL MATRIX:
     dynmat0      :      2.73s CPU      3.12s WALL (       1 calls)
     phqscf       :   3129.42s CPU   4212.26s WALL (       1 calls)
     dynmatrix    :      0.02s CPU      0.06s WALL (       1 calls)
 
     phqscf       :   3129.42s CPU   4212.26s WALL (       1 calls)
     solve_linter :   3101.15s CPU   4175.20s WALL (      21 calls)
     drhodv       :     28.25s CPU     32.47s WALL (      21 calls)
 
     dynmat0      :      2.73s CPU      3.12s WALL (       1 calls)
     dynmat_us    :      2.69s CPU      3.02s WALL (       1 calls)
     d2ionq       :      0.01s CPU      0.01s WALL (       1 calls)
     dynmatcc     :      0.03s CPU      0.04s WALL (       1 calls)
 
     dynmat_us    :      2.69s CPU      3.02s WALL (       1 calls)
     addusdynmat  :      0.00s CPU      0.00s WALL (       1 calls)
 
     phqscf       :   3129.42s CPU   4212.26s WALL (       1 calls)
     solve_linter :   3101.15s CPU   4175.20s WALL (      21 calls)
 
     solve_linter :   3101.15s CPU   4175.20s WALL (      21 calls)
     dvqpsi_us    :     17.01s CPU     18.52s WALL (   11424 calls)
     ortho        :     31.91s CPU     33.82s WALL (  112608 calls)
     cgsolve      :   1441.41s CPU   1729.73s WALL (  112608 calls)
     incdrhoscf   :    237.68s CPU    297.29s WALL (  112608 calls)
     addusddens   :      3.50s CPU      4.64s WALL (     228 calls)
     vpsifft      :    350.31s CPU    436.53s WALL (  112608 calls)
     dv_of_drho   :      0.64s CPU      0.67s WALL (     207 calls)
     mix_pot      :     12.59s CPU     52.40s WALL (     207 calls)
     psymdvscf    :      3.74s CPU      3.93s WALL (     207 calls)
     newdq        :      2.90s CPU      2.92s WALL (     207 calls)
     adddvscf     :      3.65s CPU      4.15s WALL (  112608 calls)
     drhodvus     :      2.15s CPU      6.07s WALL (      21 calls)
 
     dvqpsi_us    :     17.01s CPU     18.52s WALL (   11424 calls)
     dvqpsi_us_on :      6.49s CPU      6.90s WALL (   11424 calls)
 
     cgsolve      :   1441.41s CPU   1729.73s WALL (  112608 calls)
     ch_psi       :   1421.52s CPU   1707.06s WALL ( 1545460 calls)
 
     ch_psi       :   1421.52s CPU   1707.06s WALL ( 1545460 calls)
     h_psi        :   1333.83s CPU   1607.93s WALL ( 1563804 calls)
     last         :     64.54s CPU     72.70s WALL ( 1545460 calls)
 
     h_psi        :   1333.83s CPU   1607.93s WALL ( 1563804 calls)
     add_vuspsi   :     15.22s CPU     17.19s WALL ( 1563804 calls)
 
     incdrhoscf   :    237.68s CPU    297.29s WALL (  112608 calls)
     addusdbec    :      3.56s CPU      3.98s WALL (  124032 calls)
 
     drhodvus     :      2.15s CPU      6.07s WALL (      21 calls)
 
      Electron-phonon coupling
     elphel       :     93.07s CPU    143.92s WALL (      21 calls)
     elphsum      :     32.55s CPU     34.37s WALL (       1 calls)
 
      General routines
     calbec       :     84.00s CPU     91.60s WALL ( 3399216 calls)
     fft          :      0.69s CPU      0.89s WALL (    4023 calls)
     ffts         :      0.66s CPU      0.74s WALL (   12323 calls)
     fftw         :   1799.44s CPU   2203.93s WALL (21341944 calls)
     davcio       :     21.30s CPU    558.29s WALL (  604161 calls)
     write_rec    :      0.15s CPU     21.77s WALL (     228 calls)
 
 
     PHONON       :  55m 9.70s CPU      1h13m WALL

 
   This run was terminated on:   9:57:44  31Jul2022            

=------------------------------------------------------------------------------=
   JOB DONE.
=------------------------------------------------------------------------------=
