
     Program PHONON v.6.8 starts on 22Jul2022 at  8:45:54 

     This program is part of the open-source Quantum ESPRESSO suite
     for quantum simulation of materials; please cite
         "P. Giannozzi et al., J. Phys.:Condens. Matter 21 395502 (2009);
         "P. Giannozzi et al., J. Phys.:Condens. Matter 29 465901 (2017);
         "P. Giannozzi et al., J. Chem. Phys. 152 154105 (2020);
          URL http://www.quantum-espresso.org", 
     in publications or presentations arising from this work. More details at
     http://www.quantum-espresso.org/quote

     Parallel version (MPI), running on    48 processors

     MPI processes distributed on     1 nodes
     K-points division:     npool     =       4
     R & G space division:  proc/nbgrp/npool/nimage =      12
     188598 MiB available memory on the printing compute node when the environment starts
 
     Waiting for input...
     Reading input from standard input

     Reading xml data from directory:

     ./tmp/Ca1H6.save/

     IMPORTANT: XC functional enforced from input :
     Exchange-correlation= PBE
                           (   1   4   3   4   0   0   0)
     Any further DFT definition will be discarded
     Please, verify this is what you really want

 
     Parallelization info
     --------------------
     sticks:   dense  smooth     PW     G-vecs:    dense   smooth      PW
     Min         139      46     17                 3602      698     155
     Max         140      47     18                 3604      701     157
     Sum        1669     557    205                43227     8391    1865
 
     Using Slab Decomposition
 
     Reading collected, re-writing distributed wavefunctions

     Saving dvscf to file. Distribute only q points, not irreducible represetations.

     Calculation of q =   -0.8660254  -0.3247595  -0.3247595

     Subspace diagonalization in iterative solution of the eigenvalue problem:
     a serial algorithm will be used

 
     Parallelization info
     --------------------
     sticks:   dense  smooth     PW     G-vecs:    dense   smooth      PW
     Min         139      46     21                 3602      698     215
     Max         140      47     22                 3604      701     216
     Sum        1669     557    261                43227     8391    2587
 
     Using Slab Decomposition
 

     Title: 
     Electron-phonon coefficients for Ca1H6                                     


     bravais-lattice index     =            0
     lattice parameter (alat)  =       5.5613  a.u.
     unit-cell volume          =     132.4087 (a.u.)^3
     number of atoms/cell      =            7
     number of atomic types    =            2
     number of electrons       =        16.00
     number of Kohn-Sham states=           12
     kinetic-energy cutoff     =      60.0000  Ry
     charge density cutoff     =     720.0000  Ry
     Exchange-correlation= PBE
                           (   1   4   3   4   0   0   0)

     celldm(1)=   5.561340  celldm(2)=   0.000000  celldm(3)=   0.000000
     celldm(4)=   0.000000  celldm(5)=   0.000000  celldm(6)=   0.000000

     crystal axes: (cart. coord. in units of alat)
               a(1) = (  -0.577350   0.577350   0.577350 )  
               a(2) = (   0.577350  -0.577350   0.577350 )  
               a(3) = (   0.577350   0.577350  -0.577350 )  

     reciprocal axes: (cart. coord. in units 2 pi/alat)
               b(1) = ( -0.000000  0.866025  0.866025 )  
               b(2) = (  0.866025 -0.000000  0.866025 )  
               b(3) = (  0.866025  0.866025  0.000000 )  


     PseudoPot. # 1 for Ca read from file:
     /work/home/mayuan/code/my_script/scripts_tests/out2/200.0/pp/ca_pbe_v1.uspp.F.UPF
     MD5 check sum: 403a4c14b9e4d4dfdc3024c9a3812218
     Pseudo is Ultrasoft + core correction, Zval = 10.0
     Generated by new atomic code, or converted to UPF format
     Using radial grid of  845 points,  6 beta functions with: 
                l(1) =   0
                l(2) =   0
                l(3) =   1
                l(4) =   1
                l(5) =   2
                l(6) =   2
     Q(r) pseudized with  8 coefficients,  rinner =    1.500   1.500   1.500
                                                       1.500   1.500

     PseudoPot. # 2 for H  read from file:
     /work/home/mayuan/code/my_script/scripts_tests/out2/200.0/pp/h_pbe_v1.uspp.F.UPF
     MD5 check sum: 3408e3ff4ec8b0a4e358431e7e038a48
     Pseudo is Ultrasoft, Zval =  1.0
     Generated by new atomic code, or converted to UPF format
     Using radial grid of  615 points,  2 beta functions with: 
                l(1) =   0
                l(2) =   0
     Q(r) pseudized with  8 coefficients,  rinner =    0.700

     atomic species   valence    mass     pseudopotential
        Ca            10.00    40.07800     Ca( 1.00)
        H              1.00     1.00794     H ( 1.00)

     48 Sym. Ops., with inversion, found



   Cartesian axes

     site n.     atom                  positions (alat units)
         1           Ca  tau(   1) = (   0.0000000   0.0000000   0.0000000  )
         2           H   tau(   2) = (   0.2886751   0.0000000   0.5773503  )
         3           H   tau(   3) = (   0.2886751   0.5773503   0.0000000  )
         4           H   tau(   4) = (   0.5773503   0.2886751   0.0000000  )
         5           H   tau(   5) = (   0.0000000   0.2886751   0.5773503  )
         6           H   tau(   6) = (   0.0000000   0.5773503   0.2886751  )
         7           H   tau(   7) = (   0.5773503   0.0000000   0.2886751  )

     number of k points=  2320  Methfessel-Paxton smearing, width (Ry)=  0.0200

     Number of k-points >= 100: set verbosity='high' to print them.

     Dense  grid:    43227 G-vectors     FFT dimensions: (  48,  48,  48)

     Smooth grid:     8391 G-vectors     FFT dimensions: (  27,  27,  27)

     Estimated max dynamical RAM per process >       8.44 MB

     Estimated total dynamical RAM >     405.02 MB

     The potential is recalculated from file :
     ./tmp/_ph0/Ca1H6.save/charge-density

     Starting wfcs are   16 atomic wfcs

     Band Structure Calculation
     Davidson diagonalization with overlap

     ethr =  6.25E-11,  avg # of iterations = 14.9

     total cpu time spent up to now is       17.5 secs

     End of band structure calculation

     Number of k-points >= 100: set verbosity='high' to print the bands.

     the Fermi energy is    17.0980 ev

     Writing output data file ./tmp/_ph0/Ca1H6.save/

     Electron-phonon coefficients for Ca1H6                                     

     bravais-lattice index     =            0
     lattice parameter (alat)  =       5.5613  a.u.
     unit-cell volume          =     132.4087 (a.u.)^3
     number of atoms/cell      =            7
     number of atomic types    =            2
     kinetic-energy cut-off    =      60.0000  Ry
     charge density cut-off    =     720.0000  Ry
     convergence threshold     =      1.0E-16
     beta                      =       0.7000
     number of iterations used =            4
     Exchange-correlation= PBE
                           (   1   4   3   4   0   0   0)


     celldm(1)=    5.56134  celldm(2)=    0.00000  celldm(3)=    0.00000
     celldm(4)=    0.00000  celldm(5)=    0.00000  celldm(6)=    0.00000

     crystal axes: (cart. coord. in units of alat)
               a(1) = ( -0.5774  0.5774  0.5774 )  
               a(2) = (  0.5774 -0.5774  0.5774 )  
               a(3) = (  0.5774  0.5774 -0.5774 )  

     reciprocal axes: (cart. coord. in units 2 pi/alat)
               b(1) = ( -0.0000  0.8660  0.8660 )  
               b(2) = (  0.8660 -0.0000  0.8660 )  
               b(3) = (  0.8660  0.8660  0.0000 )  


     Atoms inside the unit cell: 

     Cartesian axes

     site n.  atom      mass           positions (alat units)
        1     Ca  40.0780   tau(    1) = (    0.00000    0.00000    0.00000  )
        2     H    1.0079   tau(    2) = (    0.28868    0.00000    0.57735  )
        3     H    1.0079   tau(    3) = (    0.28868    0.57735    0.00000  )
        4     H    1.0079   tau(    4) = (    0.57735    0.28868    0.00000  )
        5     H    1.0079   tau(    5) = (    0.00000    0.28868    0.57735  )
        6     H    1.0079   tau(    6) = (    0.00000    0.57735    0.28868  )
        7     H    1.0079   tau(    7) = (    0.57735    0.00000    0.28868  )

     Computing dynamical matrix for 
                    q = (  -0.8660254  -0.3247595  -0.3247595 )
 
      4 Sym.Ops. (no q -> -q+G )


     G cutoff =  564.0682  (   3604 G-vectors)     FFT grid: ( 48, 48, 48)
     G cutoff =  188.0227  (    699 G-vectors)  smooth grid: ( 27, 27, 27)

     number of k points=  2320  Methfessel-Paxton smearing, width (Ry)=  0.0200

     PseudoPot. # 1 for Ca read from file:
     /work/home/mayuan/code/my_script/scripts_tests/out2/200.0/pp/ca_pbe_v1.uspp.F.UPF
     MD5 check sum: 403a4c14b9e4d4dfdc3024c9a3812218
     Pseudo is Ultrasoft + core correction, Zval = 10.0
     Generated by new atomic code, or converted to UPF format
     Using radial grid of  845 points,  6 beta functions with: 
                l(1) =   0
                l(2) =   0
                l(3) =   1
                l(4) =   1
                l(5) =   2
                l(6) =   2
     Q(r) pseudized with  8 coefficients,  rinner =    1.500   1.500   1.500
                                                       1.500   1.500

     PseudoPot. # 2 for H  read from file:
     /work/home/mayuan/code/my_script/scripts_tests/out2/200.0/pp/h_pbe_v1.uspp.F.UPF
     MD5 check sum: 3408e3ff4ec8b0a4e358431e7e038a48
     Pseudo is Ultrasoft, Zval =  1.0
     Generated by new atomic code, or converted to UPF format
     Using radial grid of  615 points,  2 beta functions with: 
                l(1) =   0
                l(2) =   0
     Q(r) pseudized with  8 coefficients,  rinner =    0.700

     Mode symmetry, C_2v (mm2)  point group:


     Atomic displacements:
     There are   21 irreducible representations

     Representation     1      1 modes -  To be done

     Representation     2      1 modes -  To be done

     Representation     3      1 modes -  To be done

     Representation     4      1 modes -  To be done

     Representation     5      1 modes -  To be done

     Representation     6      1 modes -  To be done

     Representation     7      1 modes -  To be done

     Representation     8      1 modes -  To be done

     Representation     9      1 modes -  To be done

     Representation    10      1 modes -  To be done

     Representation    11      1 modes -  To be done

     Representation    12      1 modes -  To be done

     Representation    13      1 modes -  To be done

     Representation    14      1 modes -  To be done

     Representation    15      1 modes -  To be done

     Representation    16      1 modes -  To be done

     Representation    17      1 modes -  To be done

     Representation    18      1 modes -  To be done

     Representation    19      1 modes -  To be done

     Representation    20      1 modes -  To be done

     Representation    21      1 modes -  To be done



     Alpha used in Ewald sum =   2.8000
     PHONON       :     30.13s CPU     36.60s WALL



     Representation #   1 mode #   1

     Self-consistent Calculation

      iter #   1 total cpu time :    44.9 secs   av.it.:   4.0
      thresh= 1.000E-02 alpha_mix =  0.700 |ddv_scf|^2 =  5.900E-07

      iter #   2 total cpu time :    59.8 secs   av.it.:   9.6
      thresh= 7.681E-05 alpha_mix =  0.700 |ddv_scf|^2 =  6.574E-07

      iter #   3 total cpu time :    74.5 secs   av.it.:   8.7
      thresh= 8.108E-05 alpha_mix =  0.700 |ddv_scf|^2 =  2.444E-08

      iter #   4 total cpu time :    91.3 secs   av.it.:   9.0
      thresh= 1.563E-05 alpha_mix =  0.700 |ddv_scf|^2 =  1.896E-10

      iter #   5 total cpu time :   108.2 secs   av.it.:   9.5
      thresh= 1.377E-06 alpha_mix =  0.700 |ddv_scf|^2 =  1.237E-11

      iter #   6 total cpu time :   125.8 secs   av.it.:   9.4
      thresh= 3.517E-07 alpha_mix =  0.700 |ddv_scf|^2 =  2.490E-13

      iter #   7 total cpu time :   144.8 secs   av.it.:   9.4
      thresh= 4.990E-08 alpha_mix =  0.700 |ddv_scf|^2 =  8.920E-15

      iter #   8 total cpu time :   164.8 secs   av.it.:   9.7
      thresh= 9.445E-09 alpha_mix =  0.700 |ddv_scf|^2 =  1.152E-15

      iter #   9 total cpu time :   181.5 secs   av.it.:   9.5
      thresh= 3.394E-09 alpha_mix =  0.700 |ddv_scf|^2 =  7.521E-16

      iter #  10 total cpu time :   203.1 secs   av.it.:   8.6
      thresh= 2.743E-09 alpha_mix =  0.700 |ddv_scf|^2 =  1.479E-17

     End of self-consistent calculation

     Convergence has been achieved 


     Representation #   2 mode #   2

     Self-consistent Calculation

      iter #   1 total cpu time :   218.9 secs   av.it.:   4.0
      thresh= 1.000E-02 alpha_mix =  0.700 |ddv_scf|^2 =  3.669E-07

      iter #   2 total cpu time :   233.0 secs   av.it.:   9.6
      thresh= 6.057E-05 alpha_mix =  0.700 |ddv_scf|^2 =  4.650E-07

      iter #   3 total cpu time :   250.3 secs   av.it.:   8.6
      thresh= 6.819E-05 alpha_mix =  0.700 |ddv_scf|^2 =  1.080E-08

      iter #   4 total cpu time :   267.1 secs   av.it.:   9.2
      thresh= 1.039E-05 alpha_mix =  0.700 |ddv_scf|^2 =  1.821E-10

      iter #   5 total cpu time :   288.3 secs   av.it.:   9.5
      thresh= 1.349E-06 alpha_mix =  0.700 |ddv_scf|^2 =  8.197E-12

      iter #   6 total cpu time :   308.6 secs   av.it.:   9.7
      thresh= 2.863E-07 alpha_mix =  0.700 |ddv_scf|^2 =  3.495E-13

      iter #   7 total cpu time :   326.1 secs   av.it.:   9.6
      thresh= 5.912E-08 alpha_mix =  0.700 |ddv_scf|^2 =  5.208E-15

      iter #   8 total cpu time :   344.1 secs   av.it.:   9.9
      thresh= 7.216E-09 alpha_mix =  0.700 |ddv_scf|^2 =  4.181E-16

      iter #   9 total cpu time :   362.0 secs   av.it.:   9.8
      thresh= 2.045E-09 alpha_mix =  0.700 |ddv_scf|^2 =  2.089E-16

      iter #  10 total cpu time :   383.2 secs   av.it.:   8.9
      thresh= 1.445E-09 alpha_mix =  0.700 |ddv_scf|^2 =  3.998E-17

     End of self-consistent calculation

     Convergence has been achieved 


     Representation #   3 mode #   3

     Self-consistent Calculation

      iter #   1 total cpu time :   400.4 secs   av.it.:   4.1
      thresh= 1.000E-02 alpha_mix =  0.700 |ddv_scf|^2 =  2.237E-06

      iter #   2 total cpu time :   414.7 secs   av.it.:   9.2
      thresh= 1.496E-04 alpha_mix =  0.700 |ddv_scf|^2 =  4.413E-06

      iter #   3 total cpu time :   431.1 secs   av.it.:   8.4
      thresh= 2.101E-04 alpha_mix =  0.700 |ddv_scf|^2 =  1.668E-09

      iter #   4 total cpu time :   450.1 secs   av.it.:   9.6
      thresh= 4.084E-06 alpha_mix =  0.700 |ddv_scf|^2 =  1.174E-10

      iter #   5 total cpu time :   466.4 secs   av.it.:   9.6
      thresh= 1.084E-06 alpha_mix =  0.700 |ddv_scf|^2 =  5.279E-12

      iter #   6 total cpu time :   482.4 secs   av.it.:   9.6
      thresh= 2.298E-07 alpha_mix =  0.700 |ddv_scf|^2 =  2.592E-13

      iter #   7 total cpu time :   499.4 secs   av.it.:   9.7
      thresh= 5.091E-08 alpha_mix =  0.700 |ddv_scf|^2 =  1.054E-14

      iter #   8 total cpu time :   518.9 secs   av.it.:   9.7
      thresh= 1.027E-08 alpha_mix =  0.700 |ddv_scf|^2 =  5.761E-15

      iter #   9 total cpu time :   539.4 secs   av.it.:   8.8
      thresh= 7.590E-09 alpha_mix =  0.700 |ddv_scf|^2 =  5.742E-16

      iter #  10 total cpu time :   557.7 secs   av.it.:   9.3
      thresh= 2.396E-09 alpha_mix =  0.700 |ddv_scf|^2 =  3.251E-17

     End of self-consistent calculation

     Convergence has been achieved 


     Representation #   4 mode #   4

     Self-consistent Calculation

      iter #   1 total cpu time :   571.9 secs   av.it.:   4.3
      thresh= 1.000E-02 alpha_mix =  0.700 |ddv_scf|^2 =  3.732E-06

      iter #   2 total cpu time :   585.2 secs   av.it.:   9.3
      thresh= 1.932E-04 alpha_mix =  0.700 |ddv_scf|^2 =  7.398E-06

      iter #   3 total cpu time :   598.7 secs   av.it.:   8.4
      thresh= 2.720E-04 alpha_mix =  0.700 |ddv_scf|^2 =  2.072E-09

      iter #   4 total cpu time :   614.3 secs   av.it.:   9.6
      thresh= 4.552E-06 alpha_mix =  0.700 |ddv_scf|^2 =  1.435E-10

      iter #   5 total cpu time :   631.9 secs   av.it.:   9.5
      thresh= 1.198E-06 alpha_mix =  0.700 |ddv_scf|^2 =  4.961E-12

      iter #   6 total cpu time :   649.4 secs   av.it.:   9.5
      thresh= 2.227E-07 alpha_mix =  0.700 |ddv_scf|^2 =  1.918E-13

      iter #   7 total cpu time :   669.4 secs   av.it.:   9.6
      thresh= 4.379E-08 alpha_mix =  0.700 |ddv_scf|^2 =  6.202E-15

      iter #   8 total cpu time :   689.8 secs   av.it.:   9.6
      thresh= 7.875E-09 alpha_mix =  0.700 |ddv_scf|^2 =  5.241E-15

      iter #   9 total cpu time :   709.1 secs   av.it.:   8.8
      thresh= 7.239E-09 alpha_mix =  0.700 |ddv_scf|^2 =  3.415E-16

      iter #  10 total cpu time :   730.9 secs   av.it.:   9.3
      thresh= 1.848E-09 alpha_mix =  0.700 |ddv_scf|^2 =  6.424E-17

     End of self-consistent calculation

     Convergence has been achieved 


     Representation #   5 mode #   5

     Self-consistent Calculation

      iter #   1 total cpu time :   744.3 secs   av.it.:   4.1
      thresh= 1.000E-02 alpha_mix =  0.700 |ddv_scf|^2 =  2.124E-06

      iter #   2 total cpu time :   761.2 secs   av.it.:   9.3
      thresh= 1.457E-04 alpha_mix =  0.700 |ddv_scf|^2 =  4.219E-06

      iter #   3 total cpu time :   777.8 secs   av.it.:   8.4
      thresh= 2.054E-04 alpha_mix =  0.700 |ddv_scf|^2 =  1.180E-09

      iter #   4 total cpu time :   798.9 secs   av.it.:   9.7
      thresh= 3.435E-06 alpha_mix =  0.700 |ddv_scf|^2 =  1.284E-10

      iter #   5 total cpu time :   817.1 secs   av.it.:   9.6
      thresh= 1.133E-06 alpha_mix =  0.700 |ddv_scf|^2 =  3.403E-12

      iter #   6 total cpu time :   834.1 secs   av.it.:   9.5
      thresh= 1.845E-07 alpha_mix =  0.700 |ddv_scf|^2 =  1.722E-13

      iter #   7 total cpu time :   850.7 secs   av.it.:   9.7
      thresh= 4.149E-08 alpha_mix =  0.700 |ddv_scf|^2 =  1.165E-14

      iter #   8 total cpu time :   870.3 secs   av.it.:   9.5
      thresh= 1.079E-08 alpha_mix =  0.700 |ddv_scf|^2 =  5.391E-15

      iter #   9 total cpu time :   889.0 secs   av.it.:   8.8
      thresh= 7.342E-09 alpha_mix =  0.700 |ddv_scf|^2 =  5.676E-16

      iter #  10 total cpu time :   907.0 secs   av.it.:   9.2
      thresh= 2.382E-09 alpha_mix =  0.700 |ddv_scf|^2 =  4.252E-17

     End of self-consistent calculation

     Convergence has been achieved 


     Representation #   6 mode #   6

     Self-consistent Calculation

      iter #   1 total cpu time :   924.1 secs   av.it.:   6.5
      thresh= 1.000E-02 alpha_mix =  0.700 |ddv_scf|^2 =  2.290E-05

      iter #   2 total cpu time :   938.5 secs   av.it.:   9.6
      thresh= 4.786E-04 alpha_mix =  0.700 |ddv_scf|^2 =  2.867E-05

      iter #   3 total cpu time :   957.3 secs   av.it.:   8.6
      thresh= 5.354E-04 alpha_mix =  0.700 |ddv_scf|^2 =  7.521E-07

      iter #   4 total cpu time :   975.0 secs   av.it.:   9.1
      thresh= 8.672E-05 alpha_mix =  0.700 |ddv_scf|^2 =  5.154E-09

      iter #   5 total cpu time :   996.0 secs   av.it.:   9.5
      thresh= 7.179E-06 alpha_mix =  0.700 |ddv_scf|^2 =  2.657E-10

      iter #   6 total cpu time :  1019.6 secs   av.it.:   9.4
      thresh= 1.630E-06 alpha_mix =  0.700 |ddv_scf|^2 =  2.863E-12

      iter #   7 total cpu time :  1040.8 secs   av.it.:   9.7
      thresh= 1.692E-07 alpha_mix =  0.700 |ddv_scf|^2 =  2.281E-13

      iter #   8 total cpu time :  1063.1 secs   av.it.:   9.6
      thresh= 4.776E-08 alpha_mix =  0.700 |ddv_scf|^2 =  2.941E-14

      iter #   9 total cpu time :  1082.9 secs   av.it.:   9.6
      thresh= 1.715E-08 alpha_mix =  0.700 |ddv_scf|^2 =  2.830E-14

      iter #  10 total cpu time :  1104.1 secs   av.it.:   8.6
      thresh= 1.682E-08 alpha_mix =  0.700 |ddv_scf|^2 =  1.851E-16

      iter #  11 total cpu time :  1124.6 secs   av.it.:   9.4
      thresh= 1.361E-09 alpha_mix =  0.700 |ddv_scf|^2 =  2.563E-17

     End of self-consistent calculation

     Convergence has been achieved 


     Representation #   7 mode #   7

     Self-consistent Calculation

      iter #   1 total cpu time :  1140.5 secs   av.it.:   4.0
      thresh= 1.000E-02 alpha_mix =  0.700 |ddv_scf|^2 =  2.541E-07

      iter #   2 total cpu time :  1159.5 secs   av.it.:   9.6
      thresh= 5.041E-05 alpha_mix =  0.700 |ddv_scf|^2 =  2.725E-07

      iter #   3 total cpu time :  1177.3 secs   av.it.:   8.7
      thresh= 5.220E-05 alpha_mix =  0.700 |ddv_scf|^2 =  1.116E-08

      iter #   4 total cpu time :  1195.3 secs   av.it.:   9.2
      thresh= 1.057E-05 alpha_mix =  0.700 |ddv_scf|^2 =  2.088E-10

      iter #   5 total cpu time :  1217.7 secs   av.it.:   9.5
      thresh= 1.445E-06 alpha_mix =  0.700 |ddv_scf|^2 =  6.910E-12

      iter #   6 total cpu time :  1236.3 secs   av.it.:   9.7
      thresh= 2.629E-07 alpha_mix =  0.700 |ddv_scf|^2 =  3.759E-13

      iter #   7 total cpu time :  1257.6 secs   av.it.:   9.6
      thresh= 6.131E-08 alpha_mix =  0.700 |ddv_scf|^2 =  6.174E-15

      iter #   8 total cpu time :  1278.7 secs   av.it.:   9.8
      thresh= 7.857E-09 alpha_mix =  0.700 |ddv_scf|^2 =  9.879E-16

      iter #   9 total cpu time :  1298.8 secs   av.it.:   9.6
      thresh= 3.143E-09 alpha_mix =  0.700 |ddv_scf|^2 =  7.078E-16

      iter #  10 total cpu time :  1319.5 secs   av.it.:   8.7
      thresh= 2.660E-09 alpha_mix =  0.700 |ddv_scf|^2 =  1.543E-17

     End of self-consistent calculation

     Convergence has been achieved 


     Representation #   8 mode #   8

     Self-consistent Calculation

      iter #   1 total cpu time :  1337.2 secs   av.it.:   3.4
      thresh= 1.000E-02 alpha_mix =  0.700 |ddv_scf|^2 =  9.999E-09

      iter #   2 total cpu time :  1355.5 secs   av.it.:   9.1
      thresh= 1.000E-05 alpha_mix =  0.700 |ddv_scf|^2 =  6.271E-10

      iter #   3 total cpu time :  1374.8 secs   av.it.:   8.9
      thresh= 2.504E-06 alpha_mix =  0.700 |ddv_scf|^2 =  4.476E-12

      iter #   4 total cpu time :  1394.1 secs   av.it.:   8.8
      thresh= 2.116E-07 alpha_mix =  0.700 |ddv_scf|^2 =  1.406E-14

      iter #   5 total cpu time :  1415.7 secs   av.it.:   9.1
      thresh= 1.186E-08 alpha_mix =  0.700 |ddv_scf|^2 =  1.936E-16

      iter #   6 total cpu time :  1435.3 secs   av.it.:   8.5
      thresh= 1.391E-09 alpha_mix =  0.700 |ddv_scf|^2 =  3.880E-18

     End of self-consistent calculation

     Convergence has been achieved 


     Representation #   9 mode #   9

     Self-consistent Calculation

      iter #   1 total cpu time :  1451.0 secs   av.it.:   3.5
      thresh= 1.000E-02 alpha_mix =  0.700 |ddv_scf|^2 =  1.167E-08

      iter #   2 total cpu time :  1468.2 secs   av.it.:   9.1
      thresh= 1.080E-05 alpha_mix =  0.700 |ddv_scf|^2 =  6.957E-10

      iter #   3 total cpu time :  1483.8 secs   av.it.:   9.1
      thresh= 2.638E-06 alpha_mix =  0.700 |ddv_scf|^2 =  5.462E-12

      iter #   4 total cpu time :  1501.3 secs   av.it.:   8.7
      thresh= 2.337E-07 alpha_mix =  0.700 |ddv_scf|^2 =  2.940E-14

      iter #   5 total cpu time :  1518.4 secs   av.it.:   9.1
      thresh= 1.715E-08 alpha_mix =  0.700 |ddv_scf|^2 =  3.340E-16

      iter #   6 total cpu time :  1536.2 secs   av.it.:   9.2
      thresh= 1.828E-09 alpha_mix =  0.700 |ddv_scf|^2 =  4.694E-18

     End of self-consistent calculation

     Convergence has been achieved 


     Representation #  10 mode #  10

     Self-consistent Calculation

      iter #   1 total cpu time :  1551.6 secs   av.it.:   3.5
      thresh= 1.000E-02 alpha_mix =  0.700 |ddv_scf|^2 =  1.275E-08

      iter #   2 total cpu time :  1568.0 secs   av.it.:   9.1
      thresh= 1.129E-05 alpha_mix =  0.700 |ddv_scf|^2 =  7.156E-10

      iter #   3 total cpu time :  1584.2 secs   av.it.:   9.0
      thresh= 2.675E-06 alpha_mix =  0.700 |ddv_scf|^2 =  5.917E-12

      iter #   4 total cpu time :  1598.3 secs   av.it.:   8.6
      thresh= 2.433E-07 alpha_mix =  0.700 |ddv_scf|^2 =  2.437E-14

      iter #   5 total cpu time :  1615.9 secs   av.it.:   9.0
      thresh= 1.561E-08 alpha_mix =  0.700 |ddv_scf|^2 =  3.204E-16

      iter #   6 total cpu time :  1633.5 secs   av.it.:   8.9
      thresh= 1.790E-09 alpha_mix =  0.700 |ddv_scf|^2 =  3.425E-18

     End of self-consistent calculation

     Convergence has been achieved 


     Representation #  11 mode #  11

     Self-consistent Calculation

      iter #   1 total cpu time :  1648.3 secs   av.it.:   3.5
      thresh= 1.000E-02 alpha_mix =  0.700 |ddv_scf|^2 =  1.167E-08

      iter #   2 total cpu time :  1665.9 secs   av.it.:   9.1
      thresh= 1.080E-05 alpha_mix =  0.700 |ddv_scf|^2 =  6.957E-10

      iter #   3 total cpu time :  1683.2 secs   av.it.:   9.1
      thresh= 2.638E-06 alpha_mix =  0.700 |ddv_scf|^2 =  5.462E-12

      iter #   4 total cpu time :  1701.6 secs   av.it.:   8.7
      thresh= 2.337E-07 alpha_mix =  0.700 |ddv_scf|^2 =  2.940E-14

      iter #   5 total cpu time :  1721.9 secs   av.it.:   9.1
      thresh= 1.715E-08 alpha_mix =  0.700 |ddv_scf|^2 =  3.340E-16

      iter #   6 total cpu time :  1741.2 secs   av.it.:   9.2
      thresh= 1.827E-09 alpha_mix =  0.700 |ddv_scf|^2 =  4.694E-18

     End of self-consistent calculation

     Convergence has been achieved 


     Representation #  12 mode #  12

     Self-consistent Calculation

      iter #   1 total cpu time :  1757.3 secs   av.it.:   6.4
      thresh= 1.000E-02 alpha_mix =  0.700 |ddv_scf|^2 =  1.631E-05

      iter #   2 total cpu time :  1773.1 secs   av.it.:   9.5
      thresh= 4.039E-04 alpha_mix =  0.700 |ddv_scf|^2 =  3.256E-06

      iter #   3 total cpu time :  1791.6 secs   av.it.:   9.2
      thresh= 1.804E-04 alpha_mix =  0.700 |ddv_scf|^2 =  4.352E-09

      iter #   4 total cpu time :  1809.9 secs   av.it.:   9.3
      thresh= 6.597E-06 alpha_mix =  0.700 |ddv_scf|^2 =  2.477E-10

      iter #   5 total cpu time :  1828.4 secs   av.it.:   9.2
      thresh= 1.574E-06 alpha_mix =  0.700 |ddv_scf|^2 =  2.438E-12

      iter #   6 total cpu time :  1847.8 secs   av.it.:   9.2
      thresh= 1.561E-07 alpha_mix =  0.700 |ddv_scf|^2 =  2.627E-14

      iter #   7 total cpu time :  1867.8 secs   av.it.:   8.9
      thresh= 1.621E-08 alpha_mix =  0.700 |ddv_scf|^2 =  1.245E-15

      iter #   8 total cpu time :  1889.1 secs   av.it.:   9.0
      thresh= 3.528E-09 alpha_mix =  0.700 |ddv_scf|^2 =  7.354E-18

     End of self-consistent calculation

     Convergence has been achieved 


     Representation #  13 mode #  13

     Self-consistent Calculation

      iter #   1 total cpu time :  1906.3 secs   av.it.:   4.1
      thresh= 1.000E-02 alpha_mix =  0.700 |ddv_scf|^2 =  2.671E-07

      iter #   2 total cpu time :  1922.7 secs   av.it.:   9.5
      thresh= 5.168E-05 alpha_mix =  0.700 |ddv_scf|^2 =  3.397E-08

      iter #   3 total cpu time :  1942.7 secs   av.it.:   9.4
      thresh= 1.843E-05 alpha_mix =  0.700 |ddv_scf|^2 =  4.626E-10

      iter #   4 total cpu time :  1961.4 secs   av.it.:   9.4
      thresh= 2.151E-06 alpha_mix =  0.700 |ddv_scf|^2 =  1.637E-11

      iter #   5 total cpu time :  1980.6 secs   av.it.:   9.3
      thresh= 4.046E-07 alpha_mix =  0.700 |ddv_scf|^2 =  3.763E-13

      iter #   6 total cpu time :  1998.7 secs   av.it.:   9.1
      thresh= 6.135E-08 alpha_mix =  0.700 |ddv_scf|^2 =  1.888E-15

      iter #   7 total cpu time :  2020.0 secs   av.it.:   9.3
      thresh= 4.345E-09 alpha_mix =  0.700 |ddv_scf|^2 =  1.097E-16

      iter #   8 total cpu time :  2045.2 secs   av.it.:   9.3
      thresh= 1.048E-09 alpha_mix =  0.700 |ddv_scf|^2 =  7.797E-19

     End of self-consistent calculation

     Convergence has been achieved 


     Representation #  14 mode #  14

     Self-consistent Calculation

      iter #   1 total cpu time :  2061.0 secs   av.it.:   3.8
      thresh= 1.000E-02 alpha_mix =  0.700 |ddv_scf|^2 =  1.116E-07

      iter #   2 total cpu time :  2077.4 secs   av.it.:   9.3
      thresh= 3.341E-05 alpha_mix =  0.700 |ddv_scf|^2 =  1.235E-08

      iter #   3 total cpu time :  2094.0 secs   av.it.:   9.2
      thresh= 1.111E-05 alpha_mix =  0.700 |ddv_scf|^2 =  3.959E-10

      iter #   4 total cpu time :  2111.5 secs   av.it.:   9.1
      thresh= 1.990E-06 alpha_mix =  0.700 |ddv_scf|^2 =  7.855E-12

      iter #   5 total cpu time :  2130.6 secs   av.it.:   9.0
      thresh= 2.803E-07 alpha_mix =  0.700 |ddv_scf|^2 =  2.738E-13

      iter #   6 total cpu time :  2147.7 secs   av.it.:   9.3
      thresh= 5.233E-08 alpha_mix =  0.700 |ddv_scf|^2 =  1.967E-15

      iter #   7 total cpu time :  2167.6 secs   av.it.:   8.8
      thresh= 4.435E-09 alpha_mix =  0.700 |ddv_scf|^2 =  1.405E-16

      iter #   8 total cpu time :  2186.7 secs   av.it.:   8.8
      thresh= 1.185E-09 alpha_mix =  0.700 |ddv_scf|^2 =  5.225E-19

     End of self-consistent calculation

     Convergence has been achieved 


     Representation #  15 mode #  15

     Self-consistent Calculation

      iter #   1 total cpu time :  2201.3 secs   av.it.:   4.1
      thresh= 1.000E-02 alpha_mix =  0.700 |ddv_scf|^2 =  2.671E-07

      iter #   2 total cpu time :  2220.3 secs   av.it.:   9.5
      thresh= 5.168E-05 alpha_mix =  0.700 |ddv_scf|^2 =  3.397E-08

      iter #   3 total cpu time :  2236.4 secs   av.it.:   9.4
      thresh= 1.843E-05 alpha_mix =  0.700 |ddv_scf|^2 =  4.625E-10

      iter #   4 total cpu time :  2252.0 secs   av.it.:   9.4
      thresh= 2.151E-06 alpha_mix =  0.700 |ddv_scf|^2 =  1.637E-11

      iter #   5 total cpu time :  2269.6 secs   av.it.:   9.3
      thresh= 4.045E-07 alpha_mix =  0.700 |ddv_scf|^2 =  3.763E-13

      iter #   6 total cpu time :  2290.4 secs   av.it.:   9.1
      thresh= 6.134E-08 alpha_mix =  0.700 |ddv_scf|^2 =  1.890E-15

      iter #   7 total cpu time :  2308.2 secs   av.it.:   9.3
      thresh= 4.347E-09 alpha_mix =  0.700 |ddv_scf|^2 =  1.096E-16

      iter #   8 total cpu time :  2328.5 secs   av.it.:   9.3
      thresh= 1.047E-09 alpha_mix =  0.700 |ddv_scf|^2 =  8.187E-19

     End of self-consistent calculation

     Convergence has been achieved 


     Representation #  16 mode #  16

     Self-consistent Calculation

      iter #   1 total cpu time :  2344.1 secs   av.it.:   3.7
      thresh= 1.000E-02 alpha_mix =  0.700 |ddv_scf|^2 =  5.818E-07

      iter #   2 total cpu time :  2363.8 secs   av.it.:   9.1
      thresh= 7.628E-05 alpha_mix =  0.700 |ddv_scf|^2 =  1.510E-06

      iter #   3 total cpu time :  2379.8 secs   av.it.:   8.1
      thresh= 1.229E-04 alpha_mix =  0.700 |ddv_scf|^2 =  5.211E-10

      iter #   4 total cpu time :  2395.9 secs   av.it.:   9.4
      thresh= 2.283E-06 alpha_mix =  0.700 |ddv_scf|^2 =  3.005E-11

      iter #   5 total cpu time :  2414.9 secs   av.it.:   9.3
      thresh= 5.482E-07 alpha_mix =  0.700 |ddv_scf|^2 =  1.200E-12

      iter #   6 total cpu time :  2435.1 secs   av.it.:   9.1
      thresh= 1.095E-07 alpha_mix =  0.700 |ddv_scf|^2 =  1.395E-14

      iter #   7 total cpu time :  2454.5 secs   av.it.:   9.5
      thresh= 1.181E-08 alpha_mix =  0.700 |ddv_scf|^2 =  1.614E-14

      iter #   8 total cpu time :  2473.3 secs   av.it.:   8.4
      thresh= 1.270E-08 alpha_mix =  0.700 |ddv_scf|^2 =  5.949E-16

      iter #   9 total cpu time :  2493.5 secs   av.it.:   9.0
      thresh= 2.439E-09 alpha_mix =  0.700 |ddv_scf|^2 =  7.661E-18

     End of self-consistent calculation

     Convergence has been achieved 


     Representation #  17 mode #  17

     Self-consistent Calculation

      iter #   1 total cpu time :  2511.9 secs   av.it.:   3.9
      thresh= 1.000E-02 alpha_mix =  0.700 |ddv_scf|^2 =  1.373E-06

      iter #   2 total cpu time :  2527.0 secs   av.it.:   9.1
      thresh= 1.172E-04 alpha_mix =  0.700 |ddv_scf|^2 =  3.595E-06

      iter #   3 total cpu time :  2545.4 secs   av.it.:   8.1
      thresh= 1.896E-04 alpha_mix =  0.700 |ddv_scf|^2 =  8.461E-10

      iter #   4 total cpu time :  2561.4 secs   av.it.:   9.2
      thresh= 2.909E-06 alpha_mix =  0.700 |ddv_scf|^2 =  3.064E-11

      iter #   5 total cpu time :  2577.0 secs   av.it.:   9.3
      thresh= 5.536E-07 alpha_mix =  0.700 |ddv_scf|^2 =  5.821E-13

      iter #   6 total cpu time :  2596.7 secs   av.it.:   9.4
      thresh= 7.629E-08 alpha_mix =  0.700 |ddv_scf|^2 =  3.314E-14

      iter #   7 total cpu time :  2615.1 secs   av.it.:   9.4
      thresh= 1.820E-08 alpha_mix =  0.700 |ddv_scf|^2 =  4.398E-14

      iter #   8 total cpu time :  2635.3 secs   av.it.:   8.4
      thresh= 2.097E-08 alpha_mix =  0.700 |ddv_scf|^2 =  2.354E-16

      iter #   9 total cpu time :  2657.4 secs   av.it.:   9.4
      thresh= 1.534E-09 alpha_mix =  0.700 |ddv_scf|^2 =  6.399E-18

     End of self-consistent calculation

     Convergence has been achieved 


     Representation #  18 mode #  18

     Self-consistent Calculation

      iter #   1 total cpu time :  2675.3 secs   av.it.:   3.9
      thresh= 1.000E-02 alpha_mix =  0.700 |ddv_scf|^2 =  3.323E-07

      iter #   2 total cpu time :  2691.3 secs   av.it.:   9.2
      thresh= 5.764E-05 alpha_mix =  0.700 |ddv_scf|^2 =  7.430E-07

      iter #   3 total cpu time :  2710.3 secs   av.it.:   8.1
      thresh= 8.620E-05 alpha_mix =  0.700 |ddv_scf|^2 =  2.508E-09

      iter #   4 total cpu time :  2725.0 secs   av.it.:   8.7
      thresh= 5.008E-06 alpha_mix =  0.700 |ddv_scf|^2 =  3.476E-11

      iter #   5 total cpu time :  2739.7 secs   av.it.:   9.3
      thresh= 5.896E-07 alpha_mix =  0.700 |ddv_scf|^2 =  1.212E-12

      iter #   6 total cpu time :  2757.0 secs   av.it.:   9.1
      thresh= 1.101E-07 alpha_mix =  0.700 |ddv_scf|^2 =  1.619E-14

      iter #   7 total cpu time :  2776.0 secs   av.it.:   9.6
      thresh= 1.272E-08 alpha_mix =  0.700 |ddv_scf|^2 =  1.034E-14

      iter #   8 total cpu time :  2792.1 secs   av.it.:   8.6
      thresh= 1.017E-08 alpha_mix =  0.700 |ddv_scf|^2 =  2.825E-15

      iter #   9 total cpu time :  2812.3 secs   av.it.:   8.7
      thresh= 5.315E-09 alpha_mix =  0.700 |ddv_scf|^2 =  4.408E-17

     End of self-consistent calculation

     Convergence has been achieved 


     Representation #  19 mode #  19

     Self-consistent Calculation

      iter #   1 total cpu time :  2828.3 secs   av.it.:   6.8
      thresh= 1.000E-02 alpha_mix =  0.700 |ddv_scf|^2 =  2.392E-04

      iter #   2 total cpu time :  2841.7 secs   av.it.:   9.2
      thresh= 1.547E-03 alpha_mix =  0.700 |ddv_scf|^2 =  6.487E-04

      iter #   3 total cpu time :  2858.4 secs   av.it.:   8.1
      thresh= 2.547E-03 alpha_mix =  0.700 |ddv_scf|^2 =  2.874E-08

      iter #   4 total cpu time :  2874.5 secs   av.it.:   9.8
      thresh= 1.695E-05 alpha_mix =  0.700 |ddv_scf|^2 =  3.742E-09

      iter #   5 total cpu time :  2891.1 secs   av.it.:   8.6
      thresh= 6.117E-06 alpha_mix =  0.700 |ddv_scf|^2 =  2.999E-11

      iter #   6 total cpu time :  2909.5 secs   av.it.:   9.2
      thresh= 5.476E-07 alpha_mix =  0.700 |ddv_scf|^2 =  2.825E-12

      iter #   7 total cpu time :  2928.3 secs   av.it.:   8.6
      thresh= 1.681E-07 alpha_mix =  0.700 |ddv_scf|^2 =  7.877E-13

      iter #   8 total cpu time :  2948.1 secs   av.it.:   8.7
      thresh= 8.875E-08 alpha_mix =  0.700 |ddv_scf|^2 =  9.507E-16

      iter #   9 total cpu time :  2967.0 secs   av.it.:   9.1
      thresh= 3.083E-09 alpha_mix =  0.700 |ddv_scf|^2 =  8.529E-17

     End of self-consistent calculation

     Convergence has been achieved 


     Representation #  20 mode #  20

     Self-consistent Calculation

      iter #   1 total cpu time :  2981.4 secs   av.it.:   4.0
      thresh= 1.000E-02 alpha_mix =  0.700 |ddv_scf|^2 =  1.900E-06

      iter #   2 total cpu time :  2995.1 secs   av.it.:   9.1
      thresh= 1.378E-04 alpha_mix =  0.700 |ddv_scf|^2 =  5.026E-06

      iter #   3 total cpu time :  3009.6 secs   av.it.:   8.1
      thresh= 2.242E-04 alpha_mix =  0.700 |ddv_scf|^2 =  7.535E-10

      iter #   4 total cpu time :  3026.7 secs   av.it.:   9.0
      thresh= 2.745E-06 alpha_mix =  0.700 |ddv_scf|^2 =  2.024E-11

      iter #   5 total cpu time :  3047.0 secs   av.it.:   9.3
      thresh= 4.499E-07 alpha_mix =  0.700 |ddv_scf|^2 =  6.002E-13

      iter #   6 total cpu time :  3064.1 secs   av.it.:   9.3
      thresh= 7.747E-08 alpha_mix =  0.700 |ddv_scf|^2 =  3.377E-14

      iter #   7 total cpu time :  3082.6 secs   av.it.:   9.3
      thresh= 1.838E-08 alpha_mix =  0.700 |ddv_scf|^2 =  4.042E-14

      iter #   8 total cpu time :  3102.6 secs   av.it.:   8.5
      thresh= 2.010E-08 alpha_mix =  0.700 |ddv_scf|^2 =  3.308E-16

      iter #   9 total cpu time :  3120.6 secs   av.it.:   9.2
      thresh= 1.819E-09 alpha_mix =  0.700 |ddv_scf|^2 =  1.456E-17

     End of self-consistent calculation

     Convergence has been achieved 


     Representation #  21 mode #  21

     Self-consistent Calculation

      iter #   1 total cpu time :  3136.7 secs   av.it.:   3.8
      thresh= 1.000E-02 alpha_mix =  0.700 |ddv_scf|^2 =  1.110E-06

      iter #   2 total cpu time :  3150.3 secs   av.it.:   9.1
      thresh= 1.054E-04 alpha_mix =  0.700 |ddv_scf|^2 =  2.948E-06

      iter #   3 total cpu time :  3166.2 secs   av.it.:   8.1
      thresh= 1.717E-04 alpha_mix =  0.700 |ddv_scf|^2 =  4.559E-10

      iter #   4 total cpu time :  3184.1 secs   av.it.:   9.4
      thresh= 2.135E-06 alpha_mix =  0.700 |ddv_scf|^2 =  2.208E-11

      iter #   5 total cpu time :  3200.3 secs   av.it.:   9.4
      thresh= 4.699E-07 alpha_mix =  0.700 |ddv_scf|^2 =  6.192E-13

      iter #   6 total cpu time :  3217.4 secs   av.it.:   9.4
      thresh= 7.869E-08 alpha_mix =  0.700 |ddv_scf|^2 =  1.924E-14

      iter #   7 total cpu time :  3236.2 secs   av.it.:   9.5
      thresh= 1.387E-08 alpha_mix =  0.700 |ddv_scf|^2 =  2.685E-14

      iter #   8 total cpu time :  3253.7 secs   av.it.:   8.3
      thresh= 1.639E-08 alpha_mix =  0.700 |ddv_scf|^2 =  6.123E-16

      iter #   9 total cpu time :  3273.1 secs   av.it.:   8.7
      thresh= 2.475E-09 alpha_mix =  0.700 |ddv_scf|^2 =  1.400E-16

      iter #  10 total cpu time :  3293.3 secs   av.it.:   8.7
      thresh= 1.183E-09 alpha_mix =  0.700 |ddv_scf|^2 =  2.207E-18

     End of self-consistent calculation

     Convergence has been achieved 
 
     Number of q in the star =   12
     List of q in the star:
          1  -0.866025400  -0.324759500  -0.324759500
          2  -0.324759500  -0.866025400   0.324759500
          3   0.324759500   0.866025400   0.324759500
          4  -0.324759500   0.866025400  -0.324759500
          5   0.324759500  -0.866025400  -0.324759500
          6  -0.324759500   0.324759500  -0.866025400
          7   0.324759500   0.324759500   0.866025400
          8  -0.324759500  -0.324759500   0.866025400
          9   0.324759500  -0.324759500  -0.866025400
         10   0.866025400   0.324759500  -0.324759500
         11   0.866025400   0.324759500   0.324759500
         12  -0.866025400  -0.324759500   0.324759500

     Diagonalizing the dynamical matrix

     q = (   -0.866025400  -0.324759500  -0.324759500 ) 

 **************************************************************************
     freq (    1) =       8.557291 [THz] =     285.440499 [cm-1]
     freq (    2) =       9.834799 [THz] =     328.053579 [cm-1]
     freq (    3) =      13.049723 [THz] =     435.291919 [cm-1]
     freq (    4) =      28.379074 [THz] =     946.624016 [cm-1]
     freq (    5) =      28.749800 [THz] =     958.990090 [cm-1]
     freq (    6) =      30.806248 [THz] =    1027.585828 [cm-1]
     freq (    7) =      31.396848 [THz] =    1047.286104 [cm-1]
     freq (    8) =      35.243687 [THz] =    1175.602855 [cm-1]
     freq (    9) =      39.149793 [THz] =    1305.896523 [cm-1]
     freq (   10) =      40.270173 [THz] =    1343.268397 [cm-1]
     freq (   11) =      40.588328 [THz] =    1353.880893 [cm-1]
     freq (   12) =      41.448426 [THz] =    1382.570661 [cm-1]
     freq (   13) =      42.117463 [THz] =    1404.887329 [cm-1]
     freq (   14) =      43.925286 [THz] =    1465.189823 [cm-1]
     freq (   15) =      44.237272 [THz] =    1475.596566 [cm-1]
     freq (   16) =      44.378711 [THz] =    1480.314453 [cm-1]
     freq (   17) =      45.580874 [THz] =    1520.414304 [cm-1]
     freq (   18) =      48.941207 [THz] =    1632.502959 [cm-1]
     freq (   19) =      51.118631 [THz] =    1705.133996 [cm-1]
     freq (   20) =      51.919044 [THz] =    1731.832907 [cm-1]
     freq (   21) =      58.326727 [THz] =    1945.570184 [cm-1]
 **************************************************************************

     Mode symmetry, C_2v (mm2)  point group:

     freq (   1-   1) =        285.4  [cm-1]   --> B_1  D_3  S_3      
     freq (   2-   2) =        328.1  [cm-1]   --> A_1  D_1  S_1      
     freq (   3-   3) =        435.3  [cm-1]   --> B_2  D_4  S_4      
     freq (   4-   4) =        946.6  [cm-1]   --> A_1  D_1  S_1      
     freq (   5-   5) =        959.0  [cm-1]   --> A_2  D_2  S_2      
     freq (   6-   6) =       1027.6  [cm-1]   --> A_2  D_2  S_2      
     freq (   7-   7) =       1047.3  [cm-1]   --> B_2  D_4  S_4      
     freq (   8-   8) =       1175.6  [cm-1]   --> A_1  D_1  S_1      
     freq (   9-   9) =       1305.9  [cm-1]   --> B_1  D_3  S_3      
     freq (  10-  10) =       1343.3  [cm-1]   --> B_2  D_4  S_4      
     freq (  11-  11) =       1353.9  [cm-1]   --> A_2  D_2  S_2      
     freq (  12-  12) =       1382.6  [cm-1]   --> A_1  D_1  S_1      
     freq (  13-  13) =       1404.9  [cm-1]   --> B_1  D_3  S_3      
     freq (  14-  14) =       1465.2  [cm-1]   --> A_1  D_1  S_1      
     freq (  15-  15) =       1475.6  [cm-1]   --> B_2  D_4  S_4      
     freq (  16-  16) =       1480.3  [cm-1]   --> A_2  D_2  S_2      
     freq (  17-  17) =       1520.4  [cm-1]   --> B_2  D_4  S_4      
     freq (  18-  18) =       1632.5  [cm-1]   --> B_1  D_3  S_3      
     freq (  19-  19) =       1705.1  [cm-1]   --> A_1  D_1  S_1      
     freq (  20-  20) =       1731.8  [cm-1]   --> B_2  D_4  S_4      
     freq (  21-  21) =       1945.6  [cm-1]   --> A_1  D_1  S_1      
     electron-phonon interaction  ...

     Gaussian Broadening:   0.005 Ry, ngauss=   0
     DOS =  1.900675 states/spin/Ry/Unit Cell at Ef= 17.155196 eV
     lambda(    1)=  0.0352   gamma=    4.68 GHz
     lambda(    2)=  0.2249   gamma=   39.48 GHz
     lambda(    3)=  0.0326   gamma=   10.07 GHz
     lambda(    4)=  0.2362   gamma=  345.27 GHz
     lambda(    5)=  0.2960   gamma=  444.13 GHz
     lambda(    6)=  0.1468   gamma=  252.78 GHz
     lambda(    7)=  0.0563   gamma=  100.74 GHz
     lambda(    8)=  0.0829   gamma=  186.87 GHz
     lambda(    9)=  0.0042   gamma=   11.68 GHz
     lambda(   10)=  0.0076   gamma=   22.39 GHz
     lambda(   11)=  0.0015   gamma=    4.59 GHz
     lambda(   12)=  0.0132   gamma=   41.08 GHz
     lambda(   13)=  0.0017   gamma=    5.53 GHz
     lambda(   14)=  0.0299   gamma=  104.53 GHz
     lambda(   15)=  0.0130   gamma=   46.15 GHz
     lambda(   16)=  0.0007   gamma=    2.63 GHz
     lambda(   17)=  0.0036   gamma=   13.58 GHz
     lambda(   18)=  0.0065   gamma=   28.37 GHz
     lambda(   19)=  0.0123   gamma=   58.38 GHz
     lambda(   20)=  0.0053   gamma=   26.17 GHz
     lambda(   21)=  0.0024   gamma=   14.58 GHz
     Gaussian Broadening:   0.010 Ry, ngauss=   0
     DOS =  2.130656 states/spin/Ry/Unit Cell at Ef= 17.149400 eV
     lambda(    1)=  0.0526   gamma=    7.84 GHz
     lambda(    2)=  0.2688   gamma=   52.91 GHz
     lambda(    3)=  0.0334   gamma=   11.58 GHz
     lambda(    4)=  0.3369   gamma=  552.01 GHz
     lambda(    5)=  0.3162   gamma=  531.80 GHz
     lambda(    6)=  0.1532   gamma=  295.76 GHz
     lambda(    7)=  0.1610   gamma=  322.82 GHz
     lambda(    8)=  0.1115   gamma=  281.71 GHz
     lambda(    9)=  0.0225   gamma=   70.16 GHz
     lambda(   10)=  0.0105   gamma=   34.55 GHz
     lambda(   11)=  0.0028   gamma=    9.49 GHz
     lambda(   12)=  0.0148   gamma=   51.88 GHz
     lambda(   13)=  0.0064   gamma=   22.98 GHz
     lambda(   14)=  0.0436   gamma=  171.07 GHz
     lambda(   15)=  0.0195   gamma=   77.77 GHz
     lambda(   16)=  0.0028   gamma=   11.28 GHz
     lambda(   17)=  0.0065   gamma=   27.57 GHz
     lambda(   18)=  0.0050   gamma=   24.44 GHz
     lambda(   19)=  0.0205   gamma=  108.82 GHz
     lambda(   20)=  0.0095   gamma=   51.95 GHz
     lambda(   21)=  0.0044   gamma=   30.43 GHz
     Gaussian Broadening:   0.015 Ry, ngauss=   0
     DOS =  2.235086 states/spin/Ry/Unit Cell at Ef= 17.146382 eV
     lambda(    1)=  0.0576   gamma=    9.00 GHz
     lambda(    2)=  0.2608   gamma=   53.83 GHz
     lambda(    3)=  0.0318   gamma=   11.57 GHz
     lambda(    4)=  0.3676   gamma=  631.85 GHz
     lambda(    5)=  0.3090   gamma=  545.15 GHz
     lambda(    6)=  0.1507   gamma=  305.24 GHz
     lambda(    7)=  0.2125   gamma=  447.18 GHz
     lambda(    8)=  0.1236   gamma=  327.73 GHz
     lambda(    9)=  0.0336   gamma=  109.82 GHz
     lambda(   10)=  0.0106   gamma=   36.82 GHz
     lambda(   11)=  0.0040   gamma=   14.24 GHz
     lambda(   12)=  0.0163   gamma=   59.77 GHz
     lambda(   13)=  0.0075   gamma=   28.52 GHz
     lambda(   14)=  0.0471   gamma=  193.93 GHz
     lambda(   15)=  0.0204   gamma=   85.29 GHz
     lambda(   16)=  0.0044   gamma=   18.39 GHz
     lambda(   17)=  0.0077   gamma=   34.19 GHz
     lambda(   18)=  0.0047   gamma=   23.81 GHz
     lambda(   19)=  0.0243   gamma=  135.69 GHz
     lambda(   20)=  0.0108   gamma=   62.36 GHz
     lambda(   21)=  0.0049   gamma=   35.48 GHz
     Gaussian Broadening:   0.020 Ry, ngauss=   0
     DOS =  2.290454 states/spin/Ry/Unit Cell at Ef= 17.145317 eV
     lambda(    1)=  0.0644   gamma=   10.32 GHz
     lambda(    2)=  0.2799   gamma=   59.22 GHz
     lambda(    3)=  0.0325   gamma=   12.12 GHz
     lambda(    4)=  0.4150   gamma=  731.01 GHz
     lambda(    5)=  0.3186   gamma=  575.97 GHz
     lambda(    6)=  0.1502   gamma=  311.80 GHz
     lambda(    7)=  0.2618   gamma=  564.47 GHz
     lambda(    8)=  0.1427   gamma=  387.56 GHz
     lambda(    9)=  0.0452   gamma=  151.62 GHz
     lambda(   10)=  0.0112   gamma=   39.87 GHz
     lambda(   11)=  0.0054   gamma=   19.38 GHz
     lambda(   12)=  0.0187   gamma=   70.17 GHz
     lambda(   13)=  0.0086   gamma=   33.31 GHz
     lambda(   14)=  0.0512   gamma=  215.94 GHz
     lambda(   15)=  0.0225   gamma=   96.38 GHz
     lambda(   16)=  0.0056   gamma=   24.18 GHz
     lambda(   17)=  0.0089   gamma=   40.34 GHz
     lambda(   18)=  0.0048   gamma=   25.18 GHz
     lambda(   19)=  0.0297   gamma=  169.55 GHz
     lambda(   20)=  0.0120   gamma=   70.48 GHz
     lambda(   21)=  0.0055   gamma=   41.25 GHz
     Gaussian Broadening:   0.025 Ry, ngauss=   0
     DOS =  2.332190 states/spin/Ry/Unit Cell at Ef= 17.144758 eV
     lambda(    1)=  0.0700   gamma=   11.42 GHz
     lambda(    2)=  0.3090   gamma=   66.56 GHz
     lambda(    3)=  0.0339   gamma=   12.85 GHz
     lambda(    4)=  0.4648   gamma=  833.75 GHz
     lambda(    5)=  0.3275   gamma=  602.80 GHz
     lambda(    6)=  0.1517   gamma=  320.53 GHz
     lambda(    7)=  0.2979   gamma=  654.05 GHz
     lambda(    8)=  0.1586   gamma=  438.65 GHz
     lambda(    9)=  0.0528   gamma=  180.14 GHz
     lambda(   10)=  0.0119   gamma=   42.97 GHz
     lambda(   11)=  0.0062   gamma=   22.83 GHz
     lambda(   12)=  0.0205   gamma=   78.26 GHz
     lambda(   13)=  0.0095   gamma=   37.43 GHz
     lambda(   14)=  0.0544   gamma=  233.56 GHz
     lambda(   15)=  0.0247   gamma=  107.83 GHz
     lambda(   16)=  0.0064   gamma=   27.92 GHz
     lambda(   17)=  0.0098   gamma=   45.28 GHz
     lambda(   18)=  0.0051   gamma=   27.17 GHz
     lambda(   19)=  0.0341   gamma=  198.36 GHz
     lambda(   20)=  0.0128   gamma=   76.84 GHz
     lambda(   21)=  0.0063   gamma=   47.37 GHz
     Gaussian Broadening:   0.030 Ry, ngauss=   0
     DOS =  2.360595 states/spin/Ry/Unit Cell at Ef= 17.144134 eV
     lambda(    1)=  0.0737   gamma=   12.16 GHz
     lambda(    2)=  0.3315   gamma=   72.27 GHz
     lambda(    3)=  0.0351   gamma=   13.48 GHz
     lambda(    4)=  0.5020   gamma=  911.29 GHz
     lambda(    5)=  0.3306   gamma=  615.92 GHz
     lambda(    6)=  0.1527   gamma=  326.75 GHz
     lambda(    7)=  0.3196   gamma=  710.10 GHz
     lambda(    8)=  0.1691   gamma=  473.58 GHz
     lambda(    9)=  0.0567   gamma=  196.06 GHz
     lambda(   10)=  0.0123   gamma=   45.10 GHz
     lambda(   11)=  0.0066   gamma=   24.62 GHz
     lambda(   12)=  0.0214   gamma=   83.01 GHz
     lambda(   13)=  0.0101   gamma=   40.55 GHz
     lambda(   14)=  0.0563   gamma=  245.08 GHz
     lambda(   15)=  0.0265   gamma=  116.74 GHz
     lambda(   16)=  0.0067   gamma=   29.92 GHz
     lambda(   17)=  0.0104   gamma=   48.48 GHz
     lambda(   18)=  0.0054   gamma=   29.19 GHz
     lambda(   19)=  0.0370   gamma=  218.20 GHz
     lambda(   20)=  0.0133   gamma=   80.88 GHz
     lambda(   21)=  0.0070   gamma=   53.36 GHz
     Gaussian Broadening:   0.035 Ry, ngauss=   0
     DOS =  2.381114 states/spin/Ry/Unit Cell at Ef= 17.143351 eV
     lambda(    1)=  0.0762   gamma=   12.69 GHz
     lambda(    2)=  0.3442   gamma=   75.69 GHz
     lambda(    3)=  0.0361   gamma=   13.97 GHz
     lambda(    4)=  0.5249   gamma=  961.23 GHz
     lambda(    5)=  0.3296   gamma=  619.52 GHz
     lambda(    6)=  0.1533   gamma=  330.91 GHz
     lambda(    7)=  0.3312   gamma=  742.35 GHz
     lambda(    8)=  0.1759   gamma=  496.77 GHz
     lambda(    9)=  0.0589   gamma=  205.31 GHz
     lambda(   10)=  0.0126   gamma=   46.37 GHz
     lambda(   11)=  0.0068   gamma=   25.46 GHz
     lambda(   12)=  0.0219   gamma=   85.59 GHz
     lambda(   13)=  0.0107   gamma=   43.11 GHz
     lambda(   14)=  0.0576   gamma=  252.88 GHz
     lambda(   15)=  0.0277   gamma=  123.18 GHz
     lambda(   16)=  0.0069   gamma=   30.94 GHz
     lambda(   17)=  0.0107   gamma=   50.34 GHz
     lambda(   18)=  0.0057   gamma=   31.24 GHz
     lambda(   19)=  0.0389   gamma=  231.24 GHz
     lambda(   20)=  0.0136   gamma=   83.40 GHz
     lambda(   21)=  0.0077   gamma=   59.28 GHz
     Gaussian Broadening:   0.040 Ry, ngauss=   0
     DOS =  2.398900 states/spin/Ry/Unit Cell at Ef= 17.142416 eV
     lambda(    1)=  0.0784   gamma=   13.15 GHz
     lambda(    2)=  0.3489   gamma=   77.31 GHz
     lambda(    3)=  0.0369   gamma=   14.38 GHz
     lambda(    4)=  0.5368   gamma=  990.46 GHz
     lambda(    5)=  0.3267   gamma=  618.50 GHz
     lambda(    6)=  0.1538   gamma=  334.32 GHz
     lambda(    7)=  0.3369   gamma=  760.82 GHz
     lambda(    8)=  0.1803   gamma=  513.11 GHz
     lambda(    9)=  0.0605   gamma=  212.29 GHz
     lambda(   10)=  0.0127   gamma=   47.16 GHz
     lambda(   11)=  0.0069   gamma=   25.91 GHz
     lambda(   12)=  0.0221   gamma=   87.15 GHz
     lambda(   13)=  0.0112   gamma=   45.52 GHz
     lambda(   14)=  0.0586   gamma=  259.06 GHz
     lambda(   15)=  0.0285   gamma=  127.85 GHz
     lambda(   16)=  0.0070   gamma=   31.49 GHz
     lambda(   17)=  0.0108   gamma=   51.38 GHz
     lambda(   18)=  0.0061   gamma=   33.32 GHz
     lambda(   19)=  0.0401   gamma=  240.24 GHz
     lambda(   20)=  0.0138   gamma=   85.23 GHz
     lambda(   21)=  0.0084   gamma=   65.17 GHz
     Gaussian Broadening:   0.045 Ry, ngauss=   0
     DOS =  2.416850 states/spin/Ry/Unit Cell at Ef= 17.141341 eV
     lambda(    1)=  0.0803   gamma=   13.58 GHz
     lambda(    2)=  0.3481   gamma=   77.71 GHz
     lambda(    3)=  0.0375   gamma=   14.73 GHz
     lambda(    4)=  0.5412   gamma= 1005.94 GHz
     lambda(    5)=  0.3228   gamma=  615.76 GHz
     lambda(    6)=  0.1542   gamma=  337.81 GHz
     lambda(    7)=  0.3393   gamma=  771.97 GHz
     lambda(    8)=  0.1833   gamma=  525.46 GHz
     lambda(    9)=  0.0619   gamma=  218.99 GHz
     lambda(   10)=  0.0127   gamma=   47.70 GHz
     lambda(   11)=  0.0069   gamma=   26.26 GHz
     lambda(   12)=  0.0223   gamma=   88.32 GHz
     lambda(   13)=  0.0117   gamma=   47.97 GHz
     lambda(   14)=  0.0594   gamma=  264.69 GHz
     lambda(   15)=  0.0291   gamma=  131.28 GHz
     lambda(   16)=  0.0070   gamma=   31.88 GHz
     lambda(   17)=  0.0108   gamma=   51.99 GHz
     lambda(   18)=  0.0064   gamma=   35.39 GHz
     lambda(   19)=  0.0410   gamma=  246.98 GHz
     lambda(   20)=  0.0140   gamma=   86.88 GHz
     lambda(   21)=  0.0090   gamma=   70.94 GHz
     Gaussian Broadening:   0.050 Ry, ngauss=   0
     DOS =  2.436152 states/spin/Ry/Unit Cell at Ef= 17.140123 eV
     lambda(    1)=  0.0822   gamma=   14.00 GHz
     lambda(    2)=  0.3438   gamma=   77.36 GHz
     lambda(    3)=  0.0379   gamma=   15.01 GHz
     lambda(    4)=  0.5405   gamma= 1012.76 GHz
     lambda(    5)=  0.3186   gamma=  612.70 GHz
     lambda(    6)=  0.1548   gamma=  341.78 GHz
     lambda(    7)=  0.3399   gamma=  779.39 GHz
     lambda(    8)=  0.1852   gamma=  535.21 GHz
     lambda(    9)=  0.0634   gamma=  225.95 GHz
     lambda(   10)=  0.0128   gamma=   48.18 GHz
     lambda(   11)=  0.0069   gamma=   26.62 GHz
     lambda(   12)=  0.0224   gamma=   89.34 GHz
     lambda(   13)=  0.0122   gamma=   50.52 GHz
     lambda(   14)=  0.0602   gamma=  270.12 GHz
     lambda(   15)=  0.0294   gamma=  133.86 GHz
     lambda(   16)=  0.0070   gamma=   32.27 GHz
     lambda(   17)=  0.0108   gamma=   52.39 GHz
     lambda(   18)=  0.0067   gamma=   37.43 GHz
     lambda(   19)=  0.0415   gamma=  252.42 GHz
     lambda(   20)=  0.0141   gamma=   88.68 GHz
     lambda(   21)=  0.0097   gamma=   76.51 GHz
 
 
     Number of q in the star =   12
     List of q in the star:
          1  -0.866025400  -0.324759500  -0.324759500
          2  -0.324759500  -0.866025400   0.324759500
          3   0.324759500   0.866025400   0.324759500
          4  -0.324759500   0.866025400  -0.324759500
          5   0.324759500  -0.866025400  -0.324759500
          6  -0.324759500   0.324759500  -0.866025400
          7   0.324759500   0.324759500   0.866025400
          8  -0.324759500  -0.324759500   0.866025400
          9   0.324759500  -0.324759500  -0.866025400
         10   0.866025400   0.324759500  -0.324759500
         11   0.866025400   0.324759500   0.324759500
         12  -0.866025400  -0.324759500   0.324759500
 
     init_run     :      0.09s CPU      0.15s WALL (       1 calls)
     electrons    :     15.89s CPU     17.31s WALL (       1 calls)

     Called by init_run:
     wfcinit      :      0.00s CPU      0.03s WALL (       1 calls)
     potinit      :      0.01s CPU      0.03s WALL (       1 calls)
     hinit0       :      0.04s CPU      0.04s WALL (       1 calls)

     Called by electrons:
     c_bands      :     15.86s CPU     17.28s WALL (       1 calls)
     v_of_rho     :      0.01s CPU      0.05s WALL (       2 calls)
     newd         :      0.02s CPU      0.06s WALL (       2 calls)

     Called by c_bands:
     init_us_2    :      1.80s CPU      1.99s WALL (   66700 calls)
     cegterg      :      8.98s CPU      9.65s WALL (     583 calls)

     Called by *egterg:
     cdiaghg      :      2.98s CPU      3.20s WALL (    8964 calls)
     h_psi        :    943.73s CPU   1122.01s WALL (  696695 calls)
     s_psi        :     14.49s CPU     16.33s WALL ( 1436623 calls)
     g_psi        :      0.03s CPU      0.03s WALL (    8384 calls)

     Called by h_psi:
     h_psi:calbec :     12.99s CPU     14.51s WALL (  696695 calls)
     vloc_psi     :    917.73s CPU   1092.90s WALL (  696695 calls)
     add_vuspsi   :      6.99s CPU      7.87s WALL (  696695 calls)

     General routines
     calbec       :     51.54s CPU     55.12s WALL ( 1523913 calls)
     fft          :      0.61s CPU      0.93s WALL (    3623 calls)
     ffts         :      0.53s CPU      0.60s WALL (    6939 calls)
     fftw         :   1368.20s CPU   1639.64s WALL ( 9796817 calls)
     interpolate  :      0.29s CPU      0.34s WALL (     387 calls)
     davcio       :      9.75s CPU    545.05s WALL (  286662 calls)
 
     Parallel routines
 
     PHONON       :  40m 6.80s CPU  55m33.73s WALL

     INITIALIZATION: 
     phq_setup    :      0.01s CPU      0.03s WALL (       1 calls)
     phq_init     :     13.31s CPU     14.96s WALL (       1 calls)
 
     phq_init     :     13.31s CPU     14.96s WALL (       1 calls)
     set_drhoc    :      0.05s CPU      0.05s WALL (       3 calls)
     init_vloc    :      0.00s CPU      0.01s WALL (       2 calls)
     init_us_1    :      0.06s CPU      0.12s WALL (       2 calls)
     newd         :      0.02s CPU      0.06s WALL (       2 calls)
     dvanqq       :      0.17s CPU      0.18s WALL (       1 calls)
     drho         :      8.21s CPU      9.25s WALL (       1 calls)
 
     DYNAMICAL MATRIX:
     dynmat0      :      2.67s CPU      3.05s WALL (       1 calls)
     phqscf       :   2344.13s CPU   3263.53s WALL (       1 calls)
     dynmatrix    :      0.01s CPU      0.25s WALL (       1 calls)
 
     phqscf       :   2344.13s CPU   3263.53s WALL (       1 calls)
     solve_linter :   2319.13s CPU   3230.35s WALL (      21 calls)
     drhodv       :     24.96s CPU     29.55s WALL (      21 calls)
 
     dynmat0      :      2.67s CPU      3.05s WALL (       1 calls)
     dynmat_us    :      2.62s CPU      2.96s WALL (       1 calls)
     d2ionq       :      0.01s CPU      0.01s WALL (       1 calls)
     dynmatcc     :      0.04s CPU      0.04s WALL (       1 calls)
 
     dynmat_us    :      2.62s CPU      2.96s WALL (       1 calls)
     addusdynmat  :      0.00s CPU      0.00s WALL (       1 calls)
 
     phqscf       :   2344.13s CPU   3263.53s WALL (       1 calls)
     solve_linter :   2319.13s CPU   3230.35s WALL (      21 calls)
 
     solve_linter :   2319.13s CPU   3230.35s WALL (      21 calls)
     dvqpsi_us    :      9.35s CPU     10.15s WALL (    6090 calls)
     ortho        :     32.71s CPU     34.07s WALL (   52780 calls)
     cgsolve      :    990.73s CPU   1175.09s WALL (   52780 calls)
     incdrhoscf   :    205.69s CPU    249.76s WALL (   52780 calls)
     addusddens   :      3.14s CPU      4.37s WALL (     203 calls)
     vpsifft      :    273.44s CPU    329.10s WALL (   52780 calls)
     dv_of_drho   :      0.48s CPU      0.50s WALL (     182 calls)
     mix_pot      :     20.68s CPU     62.00s WALL (     182 calls)
     psymdvscf    :      8.78s CPU      9.05s WALL (     182 calls)
     newdq        :      2.63s CPU      2.64s WALL (     182 calls)
     adddvscf     :      1.71s CPU      1.93s WALL (   52780 calls)
     drhodvus     :      6.31s CPU     10.49s WALL (      21 calls)
 
     dvqpsi_us    :      9.35s CPU     10.15s WALL (    6090 calls)
     dvqpsi_us_on :      3.44s CPU      3.66s WALL (    6090 calls)
 
     cgsolve      :    990.73s CPU   1175.09s WALL (   52780 calls)
     ch_psi       :    981.89s CPU   1165.06s WALL (  687148 calls)
 
     ch_psi       :    981.89s CPU   1165.06s WALL (  687148 calls)
     h_psi        :    943.73s CPU   1122.01s WALL (  696695 calls)
     last         :     28.79s CPU     32.31s WALL (  687148 calls)
 
     h_psi        :    943.73s CPU   1122.01s WALL (  696695 calls)
     add_vuspsi   :      6.99s CPU      7.87s WALL (  696695 calls)
 
     incdrhoscf   :    205.69s CPU    249.76s WALL (   52780 calls)
     addusdbec    :      1.73s CPU      1.91s WALL (   58870 calls)
 
     drhodvus     :      6.31s CPU     10.49s WALL (      21 calls)
 
      Electron-phonon coupling
     elphel       :     74.98s CPU    101.30s WALL (      21 calls)
     elphsum      :     32.47s CPU     32.98s WALL (       1 calls)
 
      General routines
     calbec       :     51.54s CPU     55.12s WALL ( 1523913 calls)
     fft          :      0.61s CPU      0.93s WALL (    3623 calls)
     ffts         :      0.53s CPU      0.60s WALL (    6939 calls)
     fftw         :   1368.20s CPU   1639.64s WALL ( 9796817 calls)
     davcio       :      9.75s CPU    545.05s WALL (  286662 calls)
     write_rec    :      0.18s CPU     36.16s WALL (     203 calls)
 
 
     PHONON       :  40m 6.80s CPU  55m33.73s WALL

 
   This run was terminated on:   9:41:27  22Jul2022            

=------------------------------------------------------------------------------=
   JOB DONE.
=------------------------------------------------------------------------------=
