
     Program MATDYN v.7.1 starts on 26Oct2022 at 13:55:15 

     This program is part of the open-source Quantum ESPRESSO suite
     for quantum simulation of materials; please cite
         "P. Giannozzi et al., J. Phys.:Condens. Matter 21 395502 (2009);
         "P. Giannozzi et al., J. Phys.:Condens. Matter 29 465901 (2017);
         "P. Giannozzi et al., J. Chem. Phys. 152 154105 (2020);
          URL http://www.quantum-espresso.org", 
     in publications or presentations arising from this work. More details at
     http://www.quantum-espresso.org/quote

     Parallel version (MPI), running on     4 processors

     MPI processes distributed on     1 nodes
     R & G space division:  proc/nbgrp/npool/nimage =       4
     92656 MiB available memory on the printing compute node when the environment starts
 
     Message from routine matdyn:
     Z* not found in file Ca1H6.fc, TO-LO splitting at q=0 will be absent!
     Message from routine matdyn:
     Z* not found in file Ca1H6.fc, TO-LO splitting at q=0 will be absent!
 
  Gamma lines for all modes [Rydberg] 
 
 Broadening   0.0050
       1
 0.000000000 0.000000000 0.000000000 0.000000186 0.000000186 0.000000186
 0.007620121 0.007620121 0.007620121 0.000000023 0.000000023 0.000000023
 0.000048379 0.000048379 0.000048379 0.000003870 0.000000169 0.000000169
 0.000000169 0.002440300 0.002440300
       2
 0.000004179 0.000004179 0.000000373 0.000001898 0.000001898 0.000006364
 0.006569050 0.006528138 0.006528138 0.000004476 0.000005042 0.000005042
 0.000040285 0.000040285 0.000039759 0.000003344 0.000005331 0.000005331
-0.000004429 0.002106195 0.002078016
       3
 0.000009785 0.000009785 0.000001920 0.000009215 0.000009215 0.000024050
 0.004176773 0.003971029 0.003971029 0.000025833 0.000021144 0.000021144
 0.000024861 0.000024861 0.000020906 0.000000076 0.000018805 0.000018805
-0.000004533 0.001329647 0.001242996
       4
 0.000008804 0.000008804 0.000004802 0.000017070 0.000017070 0.000048566
 0.002000067 0.001506888 0.001506888 0.000068345 0.000030412 0.000030412
 0.000014490 0.000014490 0.000005535-0.000004060 0.000028225 0.000028225
 0.000011044 0.000587075 0.000461831
       5
 0.000003856 0.000003856 0.000007707 0.000012139 0.000012139 0.001000346
 0.000072493 0.000248089 0.000248089 0.000106477 0.000019721 0.000019721
 0.000008075 0.000008075 0.000000827-0.000004064 0.000019304 0.000019304
 0.000024740 0.000203183 0.000085677
       6
 0.000002224 0.000002224 0.000008970 0.000011961 0.000011961 0.000930169
 0.000098214 0.000103445 0.000103445 0.000099768 0.000019347 0.000019347
 0.000001265 0.000001265 0.000003220 0.000001908 0.000001591 0.000001591
 0.000015117 0.000141585 0.000066323
       7
 0.000006022 0.000006022 0.000008340 0.000047108 0.000047108 0.000965449
 0.000141888 0.000304771 0.000304771 0.000043619 0.000028997 0.000028997
-0.000000396-0.000000396 0.000005890 0.000011169-0.000005435-0.000005435
-0.000010758 0.000162702 0.000131687
       8
 0.000009790 0.000009790 0.000006757 0.000681273 0.000074893 0.000074893
 0.000197369 0.000344264 0.000344264 0.000008559 0.000040935 0.000040935
 0.000007980 0.000007980 0.000006559 0.000019247-0.000021302-0.000002425
-0.000002425 0.000115484 0.000105970
       9
 0.000008702 0.000008702 0.000005715 0.000295975 0.000072294 0.000072294
 0.000281947 0.000210863 0.000210863 0.000056077 0.000056077 0.000020478
 0.000018317 0.000018317 0.000006532 0.000016606 0.000009823-0.000001805
-0.000001805 0.000037510 0.000029188
      10
 0.000004975 0.000004975 0.000007114 0.000150882 0.000057428 0.000057428
 0.000393580 0.000095570 0.000095570 0.000054292 0.000054292 0.000064713
 0.000035734 0.000017846 0.000017846 0.000005401 0.000021206-0.000003454
-0.000003454 0.000004093 0.000018684
      11
 0.000003113 0.000003113 0.000011293 0.000245198 0.000030210 0.000030210
 0.000143793 0.000458701 0.000077430 0.000077430 0.000026872 0.000026872
 0.000003470 0.000003470 0.000006140 0.000000999 0.000028647 0.000003105
 0.000003105 0.000010171 0.000096282
      12
 0.000003804 0.000003804 0.000015578 0.000349457-0.000006484-0.000006484
 0.000179511 0.000088073 0.000088073 0.000414786 0.000007078 0.000007078
-0.000011275-0.000011275-0.000006225-0.000005440 0.000014573 0.000012119
 0.000012119 0.000014623 0.000179600
      13
 0.000005238 0.000005238 0.000016757 0.000370954-0.000030591-0.000030591
 0.000160579 0.000102895 0.000102895 0.000010569 0.000010569 0.000287338
-0.000006083-0.000006083-0.000012667-0.000008211 0.000006245 0.000006245
 0.000021198 0.000002647 0.000197351
      14
 0.000007077 0.000007077 0.000014429-0.000016860-0.000016860 0.000412275
 0.000118887 0.000154857 0.000154857 0.000012733 0.000012733 0.000171255
-0.000012647 0.000015780 0.000015780-0.000003908-0.000009156-0.000009156
 0.000042756-0.000007775 0.000158304
      15
 0.000008542 0.000008542 0.000010776 0.000029743 0.000029743 0.000076282
 0.000521906 0.000192765 0.000192766 0.000009062 0.000009062-0.000005338
 0.000024767 0.000024767 0.000108333 0.000002817-0.000011060-0.000011060
 0.000069176-0.000004078 0.000111492
      16
 0.000006712 0.000006712 0.000007494 0.000030621 0.000063305 0.000063305
 0.000585012 0.000145327 0.000145327 0.000007127 0.000007127 0.000003324
 0.000006178 0.000006178 0.000079388 0.000004009 0.000003771 0.000003771
 0.000084753 0.000003280 0.000084887
      17
 0.000001743 0.000001743 0.000004566-0.000008261 0.000057164 0.000057164
 0.000527267 0.000075717 0.000075717 0.000002486 0.000002486 0.000001805
-0.000013074-0.000013074 0.000064986-0.000000937 0.000013016 0.000013016
 0.000082439 0.000006521 0.000080714
      18
-0.000000974-0.000000974 0.000002868-0.000006022 0.000049269 0.000049269
 0.000487614 0.000162648 0.000162648-0.000007522-0.000007522-0.000008182
 0.000004134 0.000004134 0.000064527-0.000003011 0.000006077 0.000006077
 0.000091728 0.000018888 0.000102067
      19
 0.000002371 0.000002371 0.000004656 0.000056648 0.000650579 0.000083255
 0.000083255 0.000499928 0.000499928-0.000011864-0.000011864-0.000011182
 0.000052665 0.000052665 0.000005560 0.000083316 0.000006140 0.000006140
 0.000157036 0.000054028 0.000138137
      20
 0.000008631 0.000008631 0.000009176 0.000147678 0.000147678 0.000143128
 0.000954012 0.000920715 0.000920715-0.000002922-0.000002922-0.000002107
 0.000083689 0.000083689 0.000020221 0.000110889 0.000038561 0.000038561
 0.000310448 0.000099015 0.000117037
      21
 0.000011661 0.000011661 0.000011661 0.000183655 0.000183655 0.000183655
 0.001110605 0.001110605 0.001110605 0.000004506 0.000004506 0.000004506
 0.000027543 0.000027543 0.000027543 0.000124072 0.000124072 0.000124072
 0.000369858 0.000120190 0.000120190
      22
 0.000010096 0.000010301 0.000010113 0.000165870 0.000166759 0.000162239
 0.001017991 0.001017770 0.001010779 0.000000367-0.000001444 0.000002711
 0.000085955 0.000081029 0.000025967 0.000112491 0.000055163 0.000053105
 0.000345502 0.000110605 0.000110121
      23
 0.000006264 0.000006921 0.000006235 0.000119489 0.000139556 0.000108726
 0.000757928 0.000773677 0.000752390-0.000008361-0.000014133-0.000001033
 0.000091335 0.000076920 0.000021397 0.000083930 0.000022677 0.000013808
 0.000234369 0.000133117 0.000084275
      24
 0.000002202 0.000003192 0.000001981 0.000062849 0.000101333 0.000434419
 0.000044579 0.000464969 0.000440830-0.000013942-0.000022015-0.000003451
 0.000074887 0.000052856 0.000014486 0.000053067 0.000005951-0.000010187
 0.000089932 0.000053197 0.000167133
      25
-0.000000040-0.000000400 0.000000754 0.000018784 0.000038269 0.000176244
 0.000002784 0.000189708 0.000177407-0.000010941-0.000016455-0.000002707
 0.000045726 0.000023359 0.000006688 0.000033676 0.000007078-0.000013064
 0.000039430 0.000027713 0.000121949
      26
 0.000000519 0.000000500 0.000000299 0.000005873 0.000003396 0.000005405
 0.000009317 0.000014690 0.000013780 0.000000726 0.000000106 0.000000163
 0.000000270 0.000015919 0.000000050 0.000030000 0.000021223 0.000001422
 0.000015920 0.000013572 0.000088441
      27
 0.000003106 0.000004418 0.000001318 0.000030956 0.000008289-0.000078126
 0.000057057-0.000046535-0.000045805 0.000018684 0.000013326 0.000002304
-0.000010996-0.000003515-0.000003783 0.000035501 0.000038133 0.000021274
 0.000011022 0.000009914 0.000078058
      28
 0.000005590 0.000009630 0.000002599 0.000086250 0.000028808-0.000088884
 0.000115480-0.000026763-0.000031371 0.000026827 0.000021278 0.000001539
-0.000011817-0.000008181 0.000039602-0.000004581 0.000048025 0.000033535
 0.000019529 0.000011728 0.000081257
      29
 0.000006083 0.000014162 0.000003122 0.000152829 0.000040899-0.000057418
 0.000155757 0.000021549 0.000013803 0.000022645 0.000019855-0.000001255
-0.000007318-0.000001844 0.000035963-0.000003389 0.000046890 0.000031777
 0.000033951 0.000013844 0.000084214
      30
 0.000004306 0.000016930 0.000002709 0.000208312 0.000037214-0.000015701
 0.000167087 0.000054353 0.000055287 0.000011725 0.000010924-0.000002330
-0.000002407 0.000007516 0.000025788-0.000001415 0.000037694 0.000018753
 0.000046417 0.000013704 0.000078585
      31
 0.000001507 0.000017936 0.000001940 0.000234600 0.000025671 0.000017008
 0.000155716 0.000074289 0.000057062 0.000002011 0.000000379 0.000000712
 0.000000716 0.000013652 0.000000642 0.000015565 0.000026863 0.000002819
 0.000052131 0.000011635 0.000063586
      32
-0.000000684 0.000017712 0.000001476 0.000223366 0.000019543 0.000036983
 0.000132633 0.000076046 0.000033883-0.000001865-0.000006347 0.000005204
 0.000002431 0.000015289 0.000002313 0.000011686 0.000019018-0.000008280
 0.000050141 0.000009186 0.000043627
      33
-0.000001359 0.000016743 0.000001490 0.000178673 0.000028029 0.000049011
 0.000105343 0.000069971 0.000004154-0.000000357-0.000007409 0.000006527
 0.000003741 0.000014935 0.000003098 0.000014936 0.000014343-0.000011295
 0.000041477 0.000007267 0.000024929
      34
-0.000000687 0.000015287 0.000001823 0.000116176 0.000052527 0.000081903
 0.000058365 0.000062861-0.000015573 0.000003026-0.000004606 0.000004408
 0.000004602 0.000015390 0.000002795 0.000020200 0.000010317-0.000007367
 0.000028794 0.000005850 0.000012083
      35
 0.000000501 0.000013574 0.000002376 0.000089468 0.000058996 0.000076091
 0.000067403 0.000057192-0.000016411 0.000005264-0.000001066 0.000004096
 0.000004033 0.000016311 0.000001773 0.000023631 0.000006132 0.000000269
 0.000018290 0.000005386 0.000005968
      36
 0.000001422 0.000012005 0.000003061 0.000104971 0.000135211 0.000076620
 0.000030617 0.000056766 0.000003547 0.000006812 0.000001395 0.000012501
 0.000001680 0.000031754 0.000014020 0.000000797 0.000004126 0.000008621
 0.000017746 0.000007950 0.000004429
      37
 0.000001774 0.000010834 0.000003732 0.000181559 0.000186488 0.000087922
 0.000045374 0.000066202 0.000041037 0.000012076 0.000003097 0.000037104
-0.000000727 0.000057850 0.000008240 0.000000653 0.000003536 0.000016144
 0.000030078 0.000016051 0.000004697
      38
 0.000001712 0.000009628 0.000004262 0.000305296 0.000231447 0.000111073
 0.000085150 0.000100009 0.000088479 0.000024646 0.000096373 0.000005278
 0.000091589-0.000000253 0.000001758 0.000003435 0.000001910 0.000022459
 0.000029298 0.000052674 0.000005094
      39
 0.000001537 0.000007607 0.000004612 0.000453559 0.000204526 0.000203792
 0.000105592 0.000173852 0.000135449 0.000224147 0.000040141 0.000008400
 0.000078905 0.000003821 0.000003856 0.000005782 0.000000413 0.000027419
 0.000041695 0.000079794 0.000005105
      40
 0.000001429 0.000005114 0.000004804 0.000580200 0.000027292 0.000430300
 0.000117968 0.000246697 0.000363926 0.000170431 0.000040524 0.000035311
 0.000011468 0.000008734 0.000005964 0.000010457 0.000009778 0.000043423
 0.000030668 0.000102487 0.000004862
      41
 0.000001401 0.000003918 0.000004864 0.000631038 0.000009125 0.000466901
 0.000121156 0.000300157 0.000417759 0.000183458 0.000014744 0.000019042
 0.000012773 0.000010885 0.000006856 0.000010263 0.000027551 0.000033335
 0.000031807 0.000111407 0.000004718
      42
 0.000001799 0.000003534 0.000005975 0.000596230 0.000009689 0.000484276
 0.000141933 0.000343872 0.000341962 0.000179177 0.000009816 0.000023031
 0.000015177 0.000010801 0.000006064 0.000005802 0.000020015 0.000037275
 0.000032111 0.000104399 0.000007548
      43
 0.000002577 0.000002531 0.000007553 0.000512830 0.000523174 0.000010850
 0.000188678 0.000322404 0.000164185 0.000008665 0.000268940 0.000020717
 0.000020188 0.000010290 0.000004162-0.000000324 0.000039483 0.000003916
 0.000031735 0.000090417 0.000013340
      44
 0.000002888 0.000001319 0.000008093 0.000551548 0.000431336 0.000011206
 0.000234220 0.000133795 0.000010516 0.000253727 0.000012078 0.000023585
 0.000184656 0.000009117 0.000002487-0.000002792 0.000035168-0.000005921
 0.000028286 0.000070784 0.000016313
      45
 0.000002310 0.000000411 0.000007832 0.000538334 0.000009452 0.000258054
 0.000394100 0.000087506 0.000007122 0.000007103 0.000161103 0.000022453
 0.000007585 0.000086149 0.000002393-0.000001646 0.000030575-0.000003548
 0.000021126 0.000042283 0.000012765
      46
 0.000001339 0.000000136 0.000007390 0.000474648 0.000005817 0.000249832
 0.000403490 0.000002412 0.000036174 0.000004302 0.000016991 0.000069558
 0.000006072 0.000014056 0.000003917 0.000001878 0.000018513 0.000006002
 0.000012783 0.000008633 0.000005040
      47
 0.000000924 0.000000419 0.000007455 0.000381376 0.000210094 0.000002193
 0.000442610-0.000001134 0.000000477 0.000011203 0.000002212-0.000002193
 0.000004618 0.000020050 0.000005630 0.000005757-0.000020247 0.000007538
 0.000014542-0.000017453 0.000000885
      48
 0.000001493 0.000000846 0.000008543 0.000295118 0.000149434 0.000000694
 0.000499097-0.000002960-0.000002330 0.000010568 0.000000157-0.000033874
 0.000003093 0.000040716 0.000005971 0.000007927-0.000030791 0.000007995
 0.000016664-0.000022923 0.000007365
      49
 0.000002434 0.000000981 0.000010427 0.000084712 0.000239280 0.000002367
 0.000558327-0.000003335 0.000024693 0.000014158-0.000021822-0.000001422
 0.000054894 0.000001504 0.000004623 0.000007234-0.000018274 0.000012039
 0.000012150-0.000007640 0.000022080
      50
 0.000002384 0.000000676 0.000011887 0.000032474 0.000199521 0.000005426
 0.000587917 0.000046844-0.000002203-0.000001690 0.000011804-0.000001507
 0.000077845 0.000000294 0.000002580 0.000004021-0.000001936 0.000013609
 0.000005174 0.000011101 0.000028229
      51
 0.000000044 0.000000146 0.000011513 0.000002369 0.000125930 0.000001131
 0.000541671 0.000001372 0.000000993 0.000008437 0.000000227 0.000097279
 0.000000174 0.000000007 0.000001048 0.000000014 0.000006267 0.000008095
 0.000001039 0.000007011 0.000000727
      52
-0.000004696-0.000000212 0.000009180-0.000005816-0.000026108-0.000027378
 0.000394338-0.000156708-0.000006788 0.000006252-0.000009201 0.000097625
 0.000002336 0.000000412 0.000000433-0.000002644 0.000003375-0.000003056
 0.000002289-0.000037688-0.000075364
      53
-0.000009769-0.000000121 0.000006497 0.000000136-0.000087094-0.000231762
 0.000192571-0.000387978-0.000067590 0.000011782-0.000008766 0.000077844
 0.000003082 0.000000542 0.000000285-0.000002806-0.000004771-0.000013444
 0.000006912-0.000112025-0.000182790
      54
-0.000011415 0.000000381 0.000005439 0.000010399-0.000137384-0.000353560
 0.000075995-0.000560610-0.000180076 0.000014253-0.000002533 0.000054988
 0.000001914-0.000000182 0.000000155-0.000001112-0.000008631-0.000016068
 0.000010154-0.000164610-0.000261652
      55
-0.000007159 0.000000986 0.000006652 0.000017864-0.000097840-0.000162309
-0.000481948 0.000087392-0.000151464 0.000011217 0.000002728 0.000052549
 0.000000579-0.000000912 0.000000599 0.000000811-0.000003798-0.000007710
 0.000008458-0.000113321-0.000222659
      56
 0.000001184 0.000001355 0.000009137 0.000019762 0.000032557 0.000568470
 0.000069742 0.000105119 0.000443912 0.000003720 0.000004994 0.000069074
 0.000000574 0.000001972 0.000003299 0.000001904 0.000007258 0.000005447
 0.000002248 0.000120268 0.000015577
      57
 0.000008496 0.000001330 0.000011045 0.000016779 0.000105183 0.000041175
 0.001927588 0.001444944 0.001740917-0.000003902 0.000006176 0.000074188
 0.000006599 0.000008250 0.000009981 0.000002326 0.000018150 0.000011494
-0.000004585 0.000564869 0.000479738
      58
 0.000010594 0.000000983 0.000010584 0.000011257 0.000062749 0.000021558
 0.003757986 0.003422467 0.003589171-0.000007329 0.000006984 0.000053831
 0.000017778 0.000019422 0.000020856 0.000002759 0.000017829 0.000010969
-0.000007809 0.001166532 0.001109684
      59
 0.000007333 0.000000517 0.000007079 0.000005627 0.000015301 0.000009385
 0.005652767 0.005490840 0.005553022-0.000005662 0.000005568 0.000025382
 0.000031774 0.000032870 0.000033687 0.000003363 0.000009986 0.000006350
-0.000006080 0.001790588 0.001762299
      60
 0.000002321 0.000000142 0.000002298 0.000001620 0.000001535 0.000002476
 0.007085989 0.007043196 0.007056776-0.000001855 0.000002010 0.000006187
 0.000043679 0.000044026 0.000044264 0.000003771 0.000002754 0.000001888
-0.000001950 0.002263685 0.002256153
      61
 0.000000000 0.000000000 0.000000000 0.000000186 0.000000186 0.000000186
 0.007620121 0.007620121 0.007620121 0.000000023 0.000000023 0.000000023
 0.000048379 0.000048379 0.000048379 0.000003870 0.000000169 0.000000169
 0.000000169 0.002440300 0.002440300
      62
 0.000001236 0.000001236 0.000004396 0.000001916 0.000001916 0.000005357
 0.006814571 0.006814571 0.006750235-0.000000832-0.000000832 0.000010755
 0.000041619 0.000041619 0.000042439 0.000003772 0.000003187 0.000003187
-0.000002701 0.002172976 0.002172976
      63
 0.000003485 0.000003485 0.000012067 0.000006605 0.000006605 0.000064812
 0.004768068 0.004768068 0.004505684-0.000002754-0.000002754 0.000036479
 0.000025599 0.000025599 0.000027751 0.000003854 0.000010621 0.000010621
-0.000008995 0.001491448 0.001491448
      64
 0.000004583 0.000004583 0.000012994 0.000013627 0.000013627 0.000369857
 0.002379202 0.002379202 0.001683288-0.000004566-0.000004566 0.000055921
 0.000009453 0.000009453 0.000011683 0.000005285 0.000013754 0.000013754
-0.000013999 0.000687760 0.000687760
      65
 0.000004173 0.000004173 0.000003918 0.000023724 0.000023724 0.000561723
 0.000561723 0.000149338 0.000048614-0.000004586-0.000004586 0.000046892
 0.000000375 0.000000375 0.000001529 0.000008530 0.000002680 0.000002680
-0.000014208 0.000064557 0.000064557
      66
 0.000003470 0.000003470-0.000007723 0.000039144 0.000039144-0.000242238
-0.000242238-0.000346748-0.000185424-0.000002117-0.000002117 0.000015033
-0.000000297-0.000000297 0.000001007 0.000011298-0.000014977-0.000014977
-0.000009201-0.000216121-0.000216121
      67
 0.000004092 0.000004092-0.000009840 0.000065898 0.000065898-0.000200170
-0.000200170-0.000229325-0.000119057 0.000000675 0.000000675-0.000012990
 0.000003561 0.000003561 0.000007968 0.000010627-0.000022458-0.000022458
-0.000001557-0.000188361-0.000188361
      68
 0.000006262 0.000006262 0.000001256 0.000116721 0.000116721 0.000154831
 0.000154831 0.000163968-0.000009107 0.000002984 0.000002984-0.000019615
 0.000006670 0.000006670 0.000012960 0.000009233-0.000016035-0.000016035
 0.000004918-0.000020478-0.000020478
      69
 0.000007499 0.000007499 0.000013991 0.000177589 0.000177589 0.000359320
 0.000359320 0.000391267 0.000004553 0.000004553 0.000054705-0.000001096
 0.000006806 0.000006806 0.000011150 0.000009128-0.000003371-0.000003371
 0.000007454 0.000111323 0.000111323
      70
 0.000005323 0.000005323 0.000014412 0.000233072 0.000233072 0.000274066
 0.000274066 0.000303653 0.000002499 0.000002499 0.000049784 0.000005826
 0.000005826 0.000007121 0.000033589 0.000008669 0.000006394 0.000006394
 0.000005446 0.000124908 0.000124908
      71
 0.000000702 0.000000702 0.000002787 0.000292392 0.000292392 0.000046947
 0.000046947 0.000059866 0.000003194 0.000003194 0.000006399 0.000003397
 0.000005735 0.000005735 0.000057306 0.000007856 0.000007676 0.000007676
 0.000000326 0.000050382 0.000050382
      72
-0.000002816-0.000002816-0.000008748 0.000359091 0.000359091-0.000077544
-0.000077544-0.000104623 0.000013626 0.000013626 0.000010644 0.000006313
 0.000006313-0.000025584 0.000043064 0.000007598 0.000003360 0.000003360
-0.000004760-0.000027191-0.000027191
      73
-0.000001772-0.000001772-0.000010292 0.000414824 0.000414824 0.000033607
 0.000033607-0.000097588 0.000020500 0.000020500 0.000016520 0.000007577
 0.000007577 0.000036691-0.000037988 0.000008371 0.000000875 0.000000875
-0.000005607-0.000045363-0.000045363
      74
 0.000004792 0.000004792-0.000002245 0.000411573 0.000411573 0.000319021
 0.000319021 0.000007334 0.000014625 0.000014625 0.000019722 0.000008640
 0.000008640 0.000030132 0.000009775-0.000013721 0.000004942 0.000004942
 0.000001053-0.000005157-0.000005157
      75
 0.000012390 0.000012390 0.000007534 0.000276660 0.000276660 0.000627025
 0.000627025 0.000088168 0.000002045 0.000002045 0.000020374 0.000007631
 0.000007631 0.000024543 0.000024543 0.000034969 0.000011028 0.000016648
 0.000015230 0.000047045 0.000047045
      76
 0.000014403 0.000014403 0.000011615 0.000226825 0.000226825 0.000598458
 0.000598458 0.000092431 0.000003573 0.000003573 0.000023723 0.000005095
 0.000005095 0.000063159 0.000063159 0.000070807 0.000011718 0.000035787
 0.000033178 0.000070335 0.000070335
      77
 0.000010671 0.000010671 0.000008545 0.000258145 0.000258145 0.000313987
 0.000313987 0.000065179 0.000042391 0.000042391 0.000035074 0.000003599
 0.000003599 0.000081645 0.000081645 0.000178326 0.000011968 0.000054727
 0.000048937 0.000063140 0.000063140
      78
 0.000005658 0.000005658 0.000002693 0.000255527 0.000255527 0.000143537
 0.000143537 0.000082356 0.000060501 0.000060501 0.000053412 0.000004183
 0.000004183 0.000060489 0.000060489 0.000425780 0.000012297 0.000056529
 0.000066397 0.000051620 0.000051620
      79
 0.000002521 0.000002521-0.000000616 0.000249536 0.000249536 0.000171698
 0.000171698 0.000165986 0.000041051 0.000041051 0.000069208 0.000004760
 0.000004760 0.000806592 0.000037189 0.000037189 0.000014753 0.000051316
 0.000066545 0.000056819 0.000056819
      80
 0.000001713 0.000001713-0.000000055 0.000289779 0.000289779 0.000247949
 0.000247949 0.000263621 0.000035576 0.000035576 0.000069575 0.000005405
 0.000005405 0.001178245 0.000035701 0.000035701 0.000037968 0.000017162
 0.000067741 0.000074599 0.000074599
      81
 0.000001583 0.000001583 0.000001583 0.000311141 0.000311141 0.000296243
 0.000296243 0.000296243 0.000048794 0.000048794 0.000048794 0.000005798
 0.000005798 0.001337259 0.000043308 0.000043308 0.000043308 0.000000122
 0.000080360 0.000080360 0.000080360
      82
 0.000001436 0.000000414 0.000000414 0.000286320 0.000286320 0.000231511
 0.000256055 0.000256055 0.000016351 0.000057481 0.000057481 0.000005102
 0.000005102 0.001167090 0.000040024 0.000038317 0.000038317 0.000000367
 0.000092150 0.000057940 0.000057940
      83
-0.000000501-0.000001240-0.000001240 0.000233200 0.000233200 0.000119926
 0.000139147 0.000139147-0.000004793 0.000045865 0.000045865 0.000003004
 0.000003004 0.000732766 0.000051283 0.000012763 0.000012763 0.000001660
 0.000074742 0.000019804 0.000019804
      84
-0.000002199-0.000001170-0.000001170 0.000227929 0.000227929 0.000054585
 0.000009741 0.000009741 0.000012202 0.000011675 0.000011675 0.000000926
 0.000000926 0.000074539 0.000240337-0.000012511-0.000012511 0.000004840
 0.000023219-0.000015063-0.000015063
      85
-0.000001355 0.000001925 0.000001925 0.000329428 0.000329428 0.000090677
-0.000053885-0.000053885 0.000093265-0.000035527-0.000035527 0.000090262
 0.000000200 0.000000200-0.000113361-0.000008667-0.000008667 0.000008088
-0.000008270-0.000032140-0.000032140
      86
 0.000003183 0.000007098 0.000007098 0.000496564 0.000496564 0.000198163
-0.000020512-0.000020512 0.000270169-0.000058912-0.000058912 0.000048610
-0.000000776-0.000000776-0.000232133 0.000029975 0.000029975 0.000008381
 0.000031556-0.000021732-0.000021732
      87
 0.000009798 0.000011813 0.000011813 0.000631875 0.000631875 0.000057014
 0.000057014 0.000445280 0.000290955 0.000010638-0.000028507-0.000028507
-0.000000903-0.000000903-0.000130211 0.000005001 0.000080356 0.000080356
 0.000116293 0.000010761 0.000010761
      88
 0.000015129 0.000013804 0.000013804 0.000654738 0.000654737 0.000519000
 0.000121374 0.000121374 0.000303563 0.000037836 0.000024155 0.000024155
 0.000006013 0.000006013 0.000054576 0.000000535 0.000109390 0.000109390
 0.000197630 0.000042519 0.000042519
      89
 0.000016585 0.000012802 0.000012802 0.000552818 0.000546689 0.000546689
 0.000158803 0.000158802 0.000243486 0.000045857 0.000052462 0.000052462
 0.000016309 0.000016309 0.000167518-0.000001169 0.000100487 0.000100487
 0.000236074 0.000051524 0.000051524
      90
 0.000013590 0.000010581 0.000010581 0.000549461 0.000363451 0.000363451
 0.000186090 0.000186089 0.000174619 0.000029973 0.000043536 0.000043536
 0.000018123 0.000018123 0.000147991 0.000002206 0.000064303 0.000064303
 0.000218429 0.000036737 0.000036737
      91
 0.000007727 0.000009239 0.000009239 0.000501442 0.000194165 0.000194165
 0.000222308 0.000222308 0.000148496 0.000010100 0.000014453 0.000014453
 0.000009597 0.000009597 0.000050181 0.000009488 0.000025868 0.000025868
 0.000165411 0.000016228 0.000016228
      92
 0.000002183 0.000009485 0.000009485 0.000408794 0.000096655 0.000096655
 0.000262216 0.000262216 0.000155605 0.000002061-0.000010668-0.000010668
 0.000001997 0.000001997-0.000025327 0.000016405 0.000005781 0.000005781
 0.000006597 0.000006597 0.000111638
      93
 0.000010209 0.000010209 0.000000020 0.000283403 0.000081171 0.000081171
 0.000255324 0.000255324 0.000141600 0.000006858-0.000017248-0.000017248
 0.000002648 0.000002648-0.000024912 0.000018571 0.000009581 0.000009581
 0.000008101 0.000008101 0.000078458
      94
 0.000009348 0.000009348 0.000001686 0.000148909 0.000116561 0.000116561
 0.000152266 0.000152266 0.000063740 0.000013157-0.000002676-0.000002676
 0.000002836 0.000002836 0.000027420 0.000014822 0.000025088 0.000025088
 0.000009731 0.000009731 0.000064212
      95
 0.000005736 0.000005736 0.000004165 0.000035797 0.000115951 0.000115951
 0.000014080 0.000014080-0.000057569 0.000008606 0.000020098 0.000020098
-0.000003557-0.000003557 0.000008335 0.000072285 0.000031816 0.000031816
 0.000004443 0.000004443 0.000058515
      96
 0.000004128 0.000000900 0.000000900-0.000028266 0.000049581 0.000049581
-0.000049747-0.000049747-0.000132787-0.000009378 0.000027786 0.000027786
-0.000002524-0.000002524 0.000004668 0.000075513 0.000019521 0.000019521
-0.000002510-0.000002510 0.000062507
      97
 0.000002097-0.000001785-0.000001785-0.000030401 0.000001347 0.000001347
 0.000017922 0.000017922-0.000055534-0.000030322 0.000016076 0.000016076
 0.000017380 0.000017380 0.000007390 0.000052334-0.000002137-0.000002137
 0.000001933 0.000001933 0.000091628
      98
 0.000001608-0.000000271-0.000000271 0.000020055 0.000054708 0.000054708
 0.000222120 0.000222120 0.000217410-0.000038142 0.000000947 0.000000947
 0.000050593 0.000050593 0.000014815 0.000042296-0.000012155-0.000012155
 0.000026708 0.000026708 0.000158075
      99
 0.000004636 0.000004509 0.000004509 0.000094847 0.000144326 0.000144327
 0.000567975 0.000567975 0.000614233-0.000026179-0.000003802-0.000003802
 0.000080228 0.000080228 0.000022109 0.000065827 0.000004231 0.000004231
 0.000251298 0.000066962 0.000066962
     100
 0.000009537 0.000009537 0.000009350 0.000158780 0.000159110 0.000159110
 0.000965926 0.000965926 0.000968667-0.000005511 0.000000914 0.000000914
 0.000086795 0.000086795 0.000026319 0.000105073 0.000044779 0.000044779
 0.000335636 0.000104748 0.000104748
     101
 0.000011661 0.000011661 0.000011661 0.000183655 0.000183655 0.000183655
 0.001110605 0.001110605 0.001110605 0.000004506 0.000004506 0.000004506
 0.000027543 0.000027543 0.000027543 0.000124072 0.000124072 0.000124072
 0.000369858 0.000120190 0.000120190
     102
 0.000009537 0.000009537 0.000009350 0.000158780 0.000159110 0.000159110
 0.000965926 0.000965926 0.000968667-0.000005511 0.000000914 0.000000914
 0.000086795 0.000086795 0.000026319 0.000105073 0.000044779 0.000044779
 0.000335636 0.000104748 0.000104748
     103
 0.000004636 0.000004509 0.000004509 0.000094847 0.000144326 0.000144327
 0.000567975 0.000567975 0.000614233-0.000026179-0.000003802-0.000003802
 0.000080228 0.000080228 0.000022109 0.000065827 0.000004231 0.000004231
 0.000251298 0.000066962 0.000066962
     104
 0.000001608-0.000000271-0.000000271 0.000020055 0.000054708 0.000054708
 0.000222120 0.000222120 0.000217410-0.000038142 0.000000947 0.000000947
 0.000050593 0.000050593 0.000014815 0.000042296-0.000012155-0.000012155
 0.000026708 0.000026708 0.000158075
     105
 0.000002097-0.000001785-0.000001785-0.000030401 0.000001347 0.000001347
 0.000017922 0.000017922-0.000055534-0.000030322 0.000016076 0.000016076
 0.000017380 0.000017380 0.000007390 0.000052334-0.000002137-0.000002137
 0.000001933 0.000001933 0.000091628
     106
 0.000004128 0.000000900 0.000000900-0.000028266 0.000049581 0.000049581
-0.000049747-0.000049747-0.000132787-0.000009378 0.000027786 0.000027786
-0.000002524-0.000002524 0.000004668 0.000075513 0.000019521 0.000019521
-0.000002510-0.000002510 0.000062507
     107
 0.000005736 0.000005736 0.000004165 0.000035797 0.000115951 0.000115951
 0.000014080 0.000014080-0.000057569 0.000008606 0.000020098 0.000020098
-0.000003557-0.000003557 0.000008335 0.000072285 0.000031816 0.000031816
 0.000004443 0.000004443 0.000058515
     108
 0.000009348 0.000009348 0.000001686 0.000148909 0.000116561 0.000116561
 0.000152266 0.000152266 0.000063740 0.000013157-0.000002676-0.000002676
 0.000002836 0.000002836 0.000027420 0.000014822 0.000025088 0.000025088
 0.000009731 0.000009731 0.000064212
     109
 0.000010209 0.000010209 0.000000020 0.000283403 0.000081171 0.000081171
 0.000255324 0.000255324 0.000141600 0.000006858-0.000017248-0.000017248
 0.000002648 0.000002648-0.000024912 0.000018571 0.000009581 0.000009581
 0.000008101 0.000008101 0.000078458
     110
 0.000002183 0.000009485 0.000009485 0.000408794 0.000096655 0.000096655
 0.000262216 0.000262216 0.000155605 0.000002061-0.000010668-0.000010668
 0.000001997 0.000001997-0.000025327 0.000016405 0.000005781 0.000005781
 0.000006597 0.000006597 0.000111638
     111
 0.000007727 0.000009239 0.000009239 0.000501442 0.000194165 0.000194165
 0.000222308 0.000222308 0.000148496 0.000010100 0.000014453 0.000014453
 0.000009597 0.000009597 0.000050181 0.000009488 0.000025868 0.000025868
 0.000165411 0.000016228 0.000016228
     112
 0.000013590 0.000010581 0.000010581 0.000549461 0.000363451 0.000363451
 0.000186090 0.000186089 0.000174619 0.000029973 0.000043536 0.000043536
 0.000018123 0.000018123 0.000147991 0.000002206 0.000064303 0.000064303
 0.000218429 0.000036737 0.000036737
     113
 0.000016585 0.000012802 0.000012802 0.000552818 0.000546689 0.000546689
 0.000158803 0.000158802 0.000243486 0.000045857 0.000052462 0.000052462
 0.000016309 0.000016309 0.000167518-0.000001169 0.000100487 0.000100487
 0.000236074 0.000051524 0.000051524
     114
 0.000015129 0.000013804 0.000013804 0.000654738 0.000654737 0.000519000
 0.000121374 0.000121374 0.000303563 0.000037836 0.000024155 0.000024155
 0.000006013 0.000006013 0.000054576 0.000000535 0.000109390 0.000109390
 0.000197630 0.000042519 0.000042519
     115
 0.000009798 0.000011813 0.000011813 0.000631875 0.000631875 0.000057014
 0.000057014 0.000445280 0.000290955 0.000010638-0.000028507-0.000028507
-0.000000903-0.000000903-0.000130211 0.000005001 0.000080356 0.000080356
 0.000116293 0.000010761 0.000010761
     116
 0.000003183 0.000007098 0.000007098 0.000496564 0.000496564 0.000198163
-0.000020512-0.000020512 0.000270169-0.000058912-0.000058912 0.000048610
-0.000000776-0.000000776-0.000232133 0.000029975 0.000029975 0.000008381
 0.000031556-0.000021732-0.000021732
     117
-0.000001355 0.000001925 0.000001925 0.000329428 0.000329428 0.000090677
-0.000053885-0.000053885 0.000093265-0.000035527-0.000035527 0.000090262
 0.000000200 0.000000200-0.000113361-0.000008667-0.000008667 0.000008088
-0.000008270-0.000032140-0.000032140
     118
-0.000002199-0.000001170-0.000001170 0.000227929 0.000227929 0.000054585
 0.000009741 0.000009741 0.000012202 0.000011675 0.000011675 0.000000926
 0.000000926 0.000074539 0.000240337-0.000012511-0.000012511 0.000004840
 0.000023219-0.000015063-0.000015063
     119
-0.000000501-0.000001240-0.000001240 0.000233200 0.000233200 0.000119926
 0.000139147 0.000139147-0.000004793 0.000045865 0.000045865 0.000003004
 0.000003004 0.000732766 0.000051283 0.000012763 0.000012763 0.000001660
 0.000074742 0.000019804 0.000019804
     120
 0.000001436 0.000000414 0.000000414 0.000286320 0.000286320 0.000231511
 0.000256055 0.000256055 0.000016351 0.000057481 0.000057481 0.000005102
 0.000005102 0.001167090 0.000040024 0.000038317 0.000038317 0.000000367
 0.000092150 0.000057940 0.000057940
     121
 0.000001583 0.000001583 0.000001583 0.000311141 0.000311141 0.000296243
 0.000296243 0.000296243 0.000048794 0.000048794 0.000048794 0.000005798
 0.000005798 0.001337259 0.000043308 0.000043308 0.000043308 0.000000122
 0.000080360 0.000080360 0.000080360
     122
 0.000001981 0.000001046 0.000000975 0.000305687 0.000300360 0.000273856
 0.000276465 0.000290171 0.000032858 0.000048717 0.000060999 0.000006944
 0.000004513 0.001280335 0.000038810 0.000040471 0.000047361 0.000000455
 0.000082195 0.000066828 0.000081923
     123
 0.000002175-0.000000345 0.000000226 0.000291238 0.000269042 0.000229944
 0.000224701 0.000255797 0.000017384 0.000049573 0.000066138 0.000010150
 0.000001269 0.001120508 0.000035324 0.000032864 0.000049398 0.000001275
 0.000086565 0.000046204 0.000070340
     124
 0.000002219-0.000001978-0.000000540 0.000273361 0.000220831 0.000175448
 0.000159905 0.000201806 0.000004951 0.000053384 0.000063350 0.000012303
-0.000002353 0.000890745 0.000035348 0.000022854 0.000046795 0.000002106
 0.000090304 0.000023870 0.000049942
     125
 0.000002175-0.000003037-0.000001166 0.000259933 0.000163207 0.000121939
 0.000103788 0.000142156-0.000003262 0.000060247 0.000054256 0.000011517
-0.000004534 0.000041167 0.000635016 0.000013253 0.000038686 0.000002452
 0.000089243 0.000004243 0.000027167
     126
 0.000002065-0.000002841-0.000001516 0.000257847 0.000107682 0.000078591
 0.000072571 0.000088617-0.000003723 0.000066202 0.000041953 0.000008331
-0.000004237 0.000052463 0.000396336 0.000006098 0.000027504 0.000002133
 0.000080450-0.000009668 0.000007179
     127
 0.000001872-0.000001217-0.000001511 0.000269004 0.000066363 0.000050252
 0.000072679 0.000048288 0.000008154 0.000064834 0.000029655 0.000004308
 0.000065148-0.000001927 0.000206629 0.000002077 0.000016950 0.000001361
 0.000064633-0.000016399-0.000006589
     128
 0.000001347 0.000001584-0.000001161 0.000288166 0.000044669 0.000037140
 0.000100745 0.000027277 0.000029940 0.000052990 0.000019529 0.000001016
 0.000073842 0.000000708 0.000080481 0.000000877 0.000009726 0.000000544
 0.000046365-0.000016099-0.000012474
     129
 0.000003931 0.000001227-0.000000560 0.000304607 0.000036809 0.000028049
 0.000036145 0.000146316 0.000052578 0.000034662 0.000012147 0.000075831
-0.000000607 0.000002044 0.000015757 0.000001817 0.000006492 0.000000211
 0.000031305-0.000010479-0.000010920
     130
 0.000005652 0.000000872 0.000000147 0.000307502 0.000030634 0.000045171
 0.000042877 0.000195359 0.000068221 0.000017553 0.000006802 0.000071747
-0.000000398 0.000001687-0.000000881 0.000004195 0.000005934 0.000001032
-0.000002397 0.000022994-0.000004465
     131
 0.000006052 0.000000606 0.000000809 0.000292353 0.000017214 0.000069001
 0.000053291 0.000233879 0.000073194 0.000007071 0.000002501 0.000063958
 0.000001398 0.000000449 0.000012505 0.000007343 0.000003690 0.000005713
 0.000004970 0.000021921 0.000003053
     132
 0.000005190 0.000000508 0.000001324 0.000264367 0.000090742-0.000003402
 0.000064349 0.000251993 0.000067874 0.000004222-0.000001176 0.000055487
 0.000004875-0.000000556 0.000038508 0.000010610 0.000008557 0.000003933
 0.000009174 0.000026662 0.000007991
     133
 0.000003492 0.000000620 0.000001670 0.000236562 0.000104703-0.000022274
 0.000074154 0.000247899 0.000056454 0.000006995-0.000003971 0.000049358
 0.000011245 0.000063963-0.000000642 0.000013434 0.000015330 0.000000371
 0.000009357 0.000035330 0.000008401
     134
 0.000001541 0.000000940 0.000001906 0.000224341 0.000108540-0.000025446
 0.000081996 0.000229164 0.000046430 0.000012314-0.000005334 0.000047397
 0.000023168 0.000081293 0.000000249 0.000015422 0.000022904-0.000003415
 0.000006561 0.000046372 0.000004715
     135
-0.000000106 0.000001427 0.000002146 0.000239890 0.000102480 0.000000355
 0.000088265 0.000209505 0.000047357 0.000017365-0.000004765 0.000048760
 0.000044383 0.000087537 0.000001718 0.000016381 0.000029623-0.000005089
 0.000003295 0.000058696-0.000000753
     136
-0.000001045 0.000002009 0.000002500 0.000288172 0.000088299 0.000061800
 0.000094029 0.000202488 0.000068054 0.000020350-0.000002065 0.000049747
 0.000078645 0.000081979 0.000003245 0.000016295 0.000033925 0.000002440
-0.000002882 0.000071475-0.000005149
     137
-0.000001139 0.000002607 0.000003014 0.000364918 0.000068714 0.000154784
 0.000100292 0.000215652 0.000111888 0.000020807 0.000002497 0.000046253
 0.000126660 0.000065444 0.000004521 0.000015298 0.000035091 0.000005864
 0.000003489 0.000083889-0.000006491
     138
-0.000000548 0.000003145 0.000003640 0.000456900 0.000047186 0.000264029
 0.000107274 0.000248067 0.000172715 0.000019378 0.000008121 0.000180254
 0.000037251 0.000043448 0.000005505 0.000013706 0.000033608 0.000013392
 0.000012659 0.000094998-0.000004493
     139
 0.000000348 0.000003564 0.000004252 0.000544755 0.000027674 0.000366970
 0.000114119 0.000292941 0.000235624 0.000017217 0.000222216 0.000013592
 0.000025714 0.000024918 0.000006235 0.000012008 0.000030877 0.000022720
 0.000022136 0.000103807-0.000000515
     140
 0.000001107 0.000003828 0.000004700 0.000608007 0.000014030 0.000440337
 0.000119245 0.000282735 0.000348123 0.000015427 0.000230131 0.000017580
 0.000016334 0.000014214 0.000006697 0.000010733 0.000028481 0.000030381
 0.000029201 0.000109460 0.000003214
     141
 0.000001401 0.000003918 0.000004864 0.000631038 0.000009125 0.000466901
 0.000121156 0.000300157 0.000417759 0.000183458 0.000014744 0.000019042
 0.000012773 0.000010885 0.000006856 0.000010263 0.000027551 0.000033335
 0.000031807 0.000111407 0.000004718
 Broadening   0.0100
       1
-0.000000000-0.000000000-0.000000000 0.000002720 0.000002720 0.000002720
 0.004004127 0.004004127 0.004004127 0.000000336 0.000000336 0.000000336
 0.000035044 0.000035044 0.000035044 0.000001546 0.000001484 0.000001484
 0.000001484 0.001375230 0.001375230
       2
 0.000002470 0.000002470 0.000000751 0.000006600 0.000006600 0.000011595
 0.003420064 0.003477760 0.003477760 0.000003630 0.000005224 0.000005224
 0.000029970 0.000029970 0.000029070 0.000002151 0.000003562 0.000003562
 0.000000269 0.001223608 0.001174285
       3
 0.000006175 0.000006175 0.000003132 0.000019061 0.000019061 0.000032741
 0.002131224 0.002229365 0.002229365 0.000015818 0.000020485 0.000020486
 0.000019571 0.000019571 0.000016003 0.000001060 0.000009881 0.000009881
 0.000005957 0.000855749 0.000719008
       4
 0.000006668 0.000006668 0.000006642 0.000034004 0.000034004 0.000052714
 0.001061675 0.000985818 0.000985818 0.000035713 0.000036521 0.000036521
 0.000011291 0.000011291 0.000005394-0.000001705 0.000016042 0.000016042
 0.000023009 0.000461645 0.000311400
       5
 0.000004856 0.000004856 0.000009487 0.000037245 0.000037245 0.000718063
 0.000059104 0.000291202 0.000291202 0.000049780 0.000040909 0.000040909
 0.000006183 0.000006183 0.000002213-0.000001624 0.000013819 0.000013819
 0.000031151 0.000190928 0.000137924
       6
 0.000004007 0.000004007 0.000010209 0.000031426 0.000031426 0.000843556
 0.000053077 0.000140431 0.000140431 0.000044132 0.000042573 0.000042573
 0.000002398 0.000002398 0.000003615 0.000002921 0.000003869 0.000003869
 0.000010901 0.000067621 0.000148726
       7
 0.000005191 0.000005191 0.000009479 0.000036494 0.000036494 0.000883808
 0.000055716 0.000190347 0.000190347 0.000025427 0.000043134 0.000043134
 0.000001515 0.000001515 0.000004205 0.000008313-0.000005303-0.000005303
-0.000024232 0.000030664 0.000179878
       8
 0.000006300 0.000006300 0.000008971 0.000631892 0.000042478 0.000042478
 0.000096220 0.000194770 0.000194770 0.000017937 0.000041831 0.000041831
 0.000005373 0.000005373 0.000002435 0.000010180-0.000030570-0.000009231
-0.000009231 0.000023068 0.000146795
       9
 0.000005640 0.000005640 0.000009405 0.000331758 0.000040728 0.000040728
 0.000187645 0.000134089 0.000134089 0.000042311 0.000042311 0.000029412
 0.000010845 0.000010845 0.000000799 0.000005082 0.000035061-0.000008439
-0.000008439 0.000019275 0.000095552
      10
 0.000004529 0.000004529 0.000010540 0.000257587 0.000038153 0.000038153
 0.000295081 0.000087286 0.000087286 0.000039221 0.000039221 0.000133743
 0.000043466 0.000012432 0.000012432 0.000001234 0.000013399-0.000003350
-0.000003350 0.000018974 0.000097946
      11
 0.000004812 0.000004812 0.000011668 0.000374091 0.000031243 0.000031243
 0.000225259 0.000345540 0.000090026 0.000090026 0.000027831 0.000027831
 0.000007722 0.000007722 0.000007258 0.000002604 0.000047073 0.000005206
 0.000005206 0.000020836 0.000149678
      12
 0.000006069 0.000006069 0.000011818 0.000454222 0.000017295 0.000017295
 0.000240492 0.000108555 0.000108555 0.000294371 0.000017424 0.000017424
 0.000001195 0.000001195 0.000004798 0.000002985 0.000047843 0.000010729
 0.000010729 0.000017879 0.000186691
      13
 0.000006705 0.000006705 0.000010398 0.000400449 0.000005439 0.000005439
 0.000190509 0.000118375 0.000118375 0.000014339 0.000014339 0.000181565
 0.000001579 0.000001579 0.000002979 0.000002564 0.000006831 0.000006831
 0.000054132 0.000012688 0.000169684
      14
 0.000006598 0.000006598 0.000007874 0.000007887 0.000007887 0.000323253
 0.000123186 0.000129475 0.000129475 0.000011518 0.000011518 0.000094576
 0.000001411 0.000008953 0.000008953 0.000002802-0.000000712-0.000000712
 0.000058914 0.000012723 0.000119850
      15
 0.000006478 0.000006478 0.000005388 0.000024317 0.000024317 0.000070247
 0.000334451 0.000133917 0.000133917 0.000007499 0.000007499 0.000001688
 0.000012159 0.000012159 0.000060258 0.000003611-0.000000530-0.000000530
 0.000068157 0.000015860 0.000078101
      16
 0.000005748 0.000005748 0.000003655 0.000030480 0.000037986 0.000037986
 0.000391044 0.000111245 0.000111245 0.000004437 0.000004437 0.000002482
 0.000004887 0.000004887 0.000053155 0.000003244 0.000007336 0.000007336
 0.000077916 0.000013289 0.000059109
      17
 0.000003673 0.000003673 0.000002511-0.000001543 0.000037082 0.000037082
 0.000390085 0.000078974 0.000078974 0.000000437 0.000000437-0.000000394
-0.000002822-0.000002822 0.000047710 0.000001309 0.000011320 0.000011320
 0.000078700 0.000007299 0.000055572
      18
 0.000001611 0.000001611 0.000001860-0.000014026 0.000031659 0.000031659
 0.000333186 0.000094871 0.000094871-0.000004841-0.000004841-0.000005764
 0.000003633 0.000003633 0.000039309 0.000000261 0.000006483 0.000006483
 0.000080294 0.000014238 0.000066478
      19
 0.000001617 0.000001617 0.000002280 0.000005108 0.000310616 0.000036368
 0.000036367 0.000193355 0.000193355-0.000006513-0.000006513-0.000006839
 0.000022321 0.000022321 0.000002540 0.000038177 0.000003845 0.000003845
 0.000102005 0.000044037 0.000092486
      20
 0.000003361 0.000003361 0.000003631 0.000050720 0.000050720 0.000041064
 0.000351902 0.000323434 0.000323434-0.000002049-0.000002049-0.000001960
 0.000033793 0.000033793 0.000006886 0.000046043 0.000015459 0.000015459
 0.000162075 0.000082426 0.000098727
      21
 0.000004408 0.000004408 0.000004408 0.000059163 0.000059163 0.000059163
 0.000383544 0.000383544 0.000383544 0.000001435 0.000001435 0.000001435
 0.000009111 0.000009111 0.000009111 0.000051173 0.000051173 0.000051173
 0.000192743 0.000100251 0.000100251
      22
 0.000003855 0.000003831 0.000004002 0.000052122 0.000055769 0.000052853
 0.000356507 0.000359876 0.000351618-0.000000487-0.000001243 0.000000367
 0.000034077 0.000032529 0.000008600 0.000047241 0.000021628 0.000021365
 0.000178575 0.000092830 0.000095538
      23
 0.000002626 0.000002449 0.000003013 0.000034348 0.000053832 0.000038054
 0.000279691 0.000297544 0.000270170-0.000004520-0.000006885-0.000001774
 0.000036128 0.000031917 0.000007181 0.000037764 0.000008380 0.000006322
 0.000126581 0.000089104 0.000083385
      24
 0.000001689 0.000001072 0.000002045 0.000014989 0.000051895 0.000185343
 0.000022846 0.000218338 0.000175614-0.000006961-0.000010144-0.000002847
 0.000029556 0.000023167 0.000005179 0.000028227 0.000003076-0.000001598
 0.000062264 0.000068544 0.000085878
      25
 0.000001857 0.000001850 0.000000463 0.000006285 0.000040543 0.000115430
 0.000019383 0.000146811 0.000100899-0.000005106-0.000006994-0.000001660
 0.000018930 0.000011995 0.000003080 0.000023710 0.000006868-0.000000387
 0.000032129 0.000055718 0.000060807
      26
 0.000003234 0.000002983 0.000000869 0.000019275 0.000035035 0.000073039
 0.000036868 0.000099510 0.000059272 0.000001782 0.000000839 0.000000977
 0.000003182 0.000009493 0.000001404 0.000025575 0.000017068 0.000007859
 0.000015921 0.000047065 0.000048941
      27
 0.000005113 0.000005486 0.000001898 0.000058911 0.000039254 0.000052892
 0.000071420 0.000079512 0.000047481 0.000011128 0.000007932 0.000002940
-0.000000991 0.000005293 0.000000466 0.000031073 0.000028071 0.000017601
 0.000012463 0.000041687 0.000051762
      28
 0.000006425 0.000008875 0.000002815 0.000120746 0.000046517 0.000047483
 0.000109543 0.000078281 0.000053425 0.000015853 0.000012383 0.000002584
-0.000001027 0.000007061 0.000036019 0.000000211 0.000034627 0.000023146
 0.000019555 0.000037171 0.000060146
      29
 0.000006470 0.000012433 0.000003093 0.000191362 0.000050966 0.000048270
 0.000138192 0.000082503 0.000064857 0.000014393 0.000012030 0.000000523
 0.000000953 0.000012007 0.000037708 0.000000410 0.000034762 0.000021946
 0.000031987 0.000031734 0.000064508
      30
 0.000005350 0.000015558 0.000002834 0.000252550 0.000052372 0.000049996
 0.000151891 0.000075235 0.000081450 0.000009165 0.000007669-0.000000231
 0.000002873 0.000016007 0.000035728 0.000000982 0.000030465 0.000015677
 0.000043870 0.000025417 0.000060484
      31
 0.000003778 0.000017906 0.000002619 0.000287401 0.000055014 0.000052621
 0.000153020 0.000084024 0.000071133 0.000004089 0.000002199 0.000002892
 0.000003806 0.000016623 0.000001962 0.000031523 0.000025720 0.000008478
 0.000051945 0.000019761 0.000049026
      32
 0.000002525 0.000019339 0.000002823 0.000286406 0.000064098 0.000058576
 0.000147395 0.000092699 0.000054032 0.000001816-0.000001494 0.000008615
 0.000004010 0.000014603 0.000003156 0.000027791 0.000023348 0.000003921
 0.000055788 0.000016418 0.000034261
      33
 0.000001963 0.000019809 0.000003230 0.000251421 0.000082260 0.000068424
 0.000140649 0.000100255 0.000035887 0.000002567-0.000002192 0.000012992
 0.000004185 0.000012953 0.000004089 0.000026828 0.000022985 0.000003047
 0.000055597 0.000015687 0.000021081
      34
 0.000001979 0.000019319 0.000003477 0.000195450 0.000107871 0.000138108
 0.000079343 0.000102487 0.000022296 0.000004824-0.000000640 0.000013934
 0.000004745 0.000014883 0.000004368 0.000029539 0.000021324 0.000004547
 0.000051042 0.000016210 0.000012722
      35
 0.000002214 0.000017995 0.000003527 0.000136177 0.000138106 0.000145424
 0.000087130 0.000096536 0.000016956 0.000007213 0.000001456 0.000013291
 0.000005678 0.000020765 0.000003999 0.000037129 0.000015340 0.000006384
 0.000042545 0.000016297 0.000009430
      36
 0.000002389 0.000016090 0.000003524 0.000167773 0.000161836 0.000089619
 0.000098069 0.000085548 0.000021300 0.000010471 0.000002843 0.000015740
 0.000006960 0.000051931 0.000023591 0.000003400 0.000008353 0.000007403
 0.000033021 0.000015710 0.000009173
      37
 0.000002454 0.000013720 0.000003587 0.000208154 0.000180107 0.000089273
 0.000085072 0.000077353 0.000034413 0.000016960 0.000003404 0.000028538
 0.000008923 0.000072505 0.000018174 0.000003171 0.000003963 0.000007886
 0.000027431 0.000015994 0.000009611
      38
 0.000002519 0.000010667 0.000003756 0.000264904 0.000184137 0.000095272
 0.000078124 0.000095785 0.000053119 0.000026370 0.000066368 0.000003749
 0.000082683 0.000011892 0.000003735 0.000010520 0.000000848 0.000008818
 0.000018634 0.000029407 0.000009508
      39
 0.000002666 0.000006875 0.000003994 0.000328799 0.000143289 0.000141802
 0.000086834 0.000117857 0.000072678 0.000146002 0.000033929 0.000004337
 0.000055073 0.000015347 0.000005014 0.000008947-0.000000801 0.000010613
 0.000022473 0.000037871 0.000008810
      40
 0.000002845 0.000003340 0.000004206 0.000381927 0.000037614 0.000250805
 0.000096196 0.000142870 0.000221782 0.000087645 0.000031259 0.000019705
 0.000005031 0.000018079 0.000006363 0.000010278 0.000005190 0.000022981
 0.000012548 0.000047276 0.000008037
      41
 0.000002928 0.000001851 0.000004291 0.000403052 0.000029380 0.000260218
 0.000099879 0.000165505 0.000247577 0.000093280 0.000016379 0.000009172
 0.000005347 0.000019103 0.000006943 0.000009515 0.000015764 0.000017885
 0.000013391 0.000051319 0.000007711
      42
 0.000003306 0.000001773 0.000005133 0.000385002 0.000028877 0.000275117
 0.000111406 0.000205064 0.000206837 0.000098466 0.000013719 0.000010561
 0.000005735 0.000020082 0.000006943 0.000006928 0.000014326 0.000023361
 0.000014455 0.000049749 0.000008489
      43
 0.000004098 0.000001558 0.000006617 0.000340696 0.000310560 0.000027548
 0.000137548 0.000219930 0.000108239 0.000010324 0.000182834 0.000011266
 0.000008950 0.000021751 0.000006894 0.000003309 0.000031220 0.000010911
 0.000016646 0.000049330 0.000009926
      44
 0.000004567 0.000001270 0.000007738 0.000344262 0.000297189 0.000025911
 0.000163440 0.000111645 0.000009271 0.000220638 0.000009288 0.000016846
 0.000147054 0.000021678 0.000006765 0.000001936 0.000033622 0.000009326
 0.000017759 0.000049142 0.000010488
      45
 0.000004212 0.000001006 0.000008419 0.000354423 0.000024840 0.000177491
 0.000282261 0.000102085 0.000007461 0.000008114 0.000207701 0.000027258
 0.000018721 0.000082610 0.000006547 0.000002575 0.000031780 0.000011055
 0.000016195 0.000042581 0.000010236
      46
 0.000003221 0.000000837 0.000008849 0.000333270 0.000025332 0.000173264
 0.000298512 0.000005047 0.000081955 0.000007586 0.000035988 0.000164331
 0.000013828 0.000029521 0.000006064 0.000004202 0.000021987 0.000013752
 0.000012395 0.000025722 0.000011645
      47
 0.000002270 0.000000747 0.000009409 0.000291454 0.000150155 0.000027716
 0.000331600 0.000002597 0.000061777 0.000040222 0.000006856 0.000100533
 0.000008748 0.000031836 0.000005068 0.000005642-0.000009493 0.000008681
 0.000014517 0.000002563 0.000017752
      48
 0.000001884 0.000000671 0.000010557 0.000249307 0.000113289 0.000030987
 0.000372839 0.000000638 0.000052769 0.000039489 0.000005416 0.000037051
 0.000004666 0.000058189 0.000003612 0.000005980-0.000023791 0.000007381
 0.000012296-0.000015818 0.000028532
      49
 0.000001986 0.000000583 0.000012408 0.000071804 0.000219659 0.000033144
 0.000420673-0.000000236 0.000056193 0.000033191 0.000009455 0.000003467
 0.000074119 0.000001988 0.000002203 0.000004880-0.000017971 0.000008621
 0.000008386-0.000019670 0.000037782
      50
 0.000001906 0.000000527 0.000014334 0.000035554 0.000193725 0.000031322
 0.000467765 0.000056060 0.000000546 0.000010113 0.000020168 0.000001681
 0.000084368 0.000000635 0.000001428 0.000002664-0.000004276 0.000010076
 0.000005427-0.000008402 0.000033528
      51
 0.000000816 0.000000573 0.000015216 0.000011462 0.000142829 0.000020492
 0.000493976 0.000022838 0.000003161 0.000018865 0.000004463 0.000095478
 0.000000566 0.000000223 0.000001419 0.000000139 0.000006501 0.000009411
 0.000005515 0.000009361 0.000003937
      52
-0.000001545 0.000000736 0.000014427 0.000001322 0.000042052-0.000005826
 0.000477382-0.000061270 0.000025782 0.000006960-0.000005461 0.000100405
 0.000000048 0.000000146 0.000001730-0.000001784 0.000008958 0.000006551
 0.000008523 0.000023049-0.000052616
      53
-0.000004173 0.000000941 0.000012530 0.000002103-0.000045049-0.000093844
 0.000416497-0.000172925 0.000027183 0.000010384-0.000006395 0.000094792
-0.000000274-0.000000136 0.000001768-0.000002521 0.000004895 0.000003383
 0.000011966 0.000031021-0.000118647
      54
-0.000005032 0.000001063 0.000010797 0.000008291-0.000068686-0.000187309
 0.000330629-0.000248203 0.000050687 0.000011565-0.000001748 0.000082630
-0.000000433-0.000000624 0.000001423-0.000002056 0.000000880 0.000002248
 0.000012729 0.000048986-0.000156415
      55
-0.000002759 0.000001010 0.000010068 0.000014646-0.000034251-0.000110936
-0.000194082 0.000217197 0.000202731 0.000009532 0.000003917 0.000073352
 0.000000290-0.000000508 0.000001478-0.000000815 0.000001779 0.000004513
 0.000009357 0.000108826-0.000118271
      56
 0.000001656 0.000000786 0.000010142 0.000017908 0.000048241 0.000259819
 0.000125318 0.000121084 0.000564074 0.000005145 0.000008176 0.000068743
 0.000001559 0.000003022 0.000003356 0.000000689 0.000008881 0.000006587
 0.000003136 0.000244545 0.000033425
      57
 0.000005436 0.000000487 0.000010015 0.000017168 0.000087935 0.000074551
 0.000973321 0.000825951 0.001198068 0.000000704 0.000010422 0.000058855
 0.000006691 0.000008523 0.000008223 0.000002046 0.000011456 0.000010580
-0.000002744 0.000470498 0.000304590
      58
 0.000006332 0.000000229 0.000008538 0.000013344 0.000055117 0.000043146
 0.001944470 0.001855979 0.002077602-0.000001686 0.000010134 0.000039401
 0.000014849 0.000016500 0.000016008 0.000002862 0.000009735 0.000010499
-0.000005295 0.000764026 0.000656800
      59
 0.000004296 0.000000075 0.000005336 0.000008350 0.000018610 0.000021351
 0.002953920 0.002920905 0.003013542-0.000001598 0.000006912 0.000018691
 0.000024314 0.000025321 0.000024981 0.000002788 0.000005643 0.000007017
-0.000003758 0.001064253 0.001012253
      60
 0.000001351 0.000000013 0.000001669 0.000004277 0.000005067 0.000007541
 0.003718847 0.003711887 0.003733590-0.000000340 0.000002457 0.000004915
 0.000032046 0.000032348 0.000032244 0.000002021 0.000002503 0.000003118
-0.000000290 0.001290780 0.001277153
      61
-0.000000000-0.000000000-0.000000000 0.000002720 0.000002720 0.000002720
 0.004004127 0.004004127 0.004004127 0.000000336 0.000000336 0.000000336
 0.000035044 0.000035044 0.000035044 0.000001546 0.000001484 0.000001484
 0.000001484 0.001375230 0.001375230
      62
 0.000000649 0.000000649 0.000003072 0.000005152 0.000005152 0.000011704
 0.003588972 0.003588972 0.003577235 0.000000729 0.000000729 0.000008260
 0.000030769 0.000030769 0.000031034 0.000002257 0.000003589 0.000003589
-0.000001520 0.001239889 0.001239889
      63
 0.000001801 0.000001801 0.000008708 0.000011583 0.000011583 0.000068448
 0.002536962 0.002536962 0.002456747 0.000001686 0.000001686 0.000026752
 0.000020417 0.000020417 0.000021008 0.000003471 0.000008189 0.000008189
-0.000007628 0.000892248 0.000892248
      64
 0.000002317 0.000002317 0.000010271 0.000020203 0.000020203 0.000306928
 0.001316729 0.001316729 0.000969758 0.000002630 0.000002630 0.000040907
 0.000009405 0.000009405 0.000009756 0.000004075 0.000009268 0.000009268
-0.000011451 0.000474450 0.000474450
      65
 0.000002135 0.000002135 0.000005142 0.000029716 0.000029716 0.000402098
 0.000402098 0.000261511 0.000052174 0.000003543 0.000003543 0.000037068
 0.000002247 0.000002247 0.000002058 0.000003843 0.000001678 0.000001678
-0.000009876 0.000135856 0.000135856
      66
 0.000002068 0.000002068-0.000002739 0.000040515 0.000040515 0.000016852
 0.000016852-0.000050091-0.000082219 0.000004940 0.000004940 0.000019574
 0.000000250 0.000000250 0.000000017 0.000002645-0.000008598-0.000008598
-0.000003619-0.000039250-0.000039250
      67
 0.000003044 0.000003044-0.000006247 0.000058832 0.000058832 0.000062148
 0.000062148-0.000084513-0.000053083 0.000006815 0.000006815 0.000005618
 0.000001721 0.000001721 0.000001343 0.000001253-0.000010649-0.000010649
 0.000003818-0.000059768-0.000059768
      68
 0.000005043 0.000005043-0.000002248 0.000097842 0.000097842 0.000248627
 0.000248627 0.000042608-0.000001508 0.000009552 0.000009552 0.000005733
 0.000003820 0.000003820 0.000001075 0.000001883-0.000002653-0.000002653
 0.000008685-0.000000807-0.000000807
      69
 0.000006440 0.000006440 0.000004235 0.000150948 0.000150948 0.000335908
 0.000335908 0.000136335 0.000012322 0.000012322 0.000028305 0.000018597
 0.000004816 0.000004816-0.000000790 0.000003576 0.000008090 0.000008090
 0.000009315 0.000054767 0.000054767
      70
 0.000005663 0.000005663 0.000005913 0.000206667 0.000206667 0.000262681
 0.000262681 0.000119708 0.000011684 0.000011684 0.000025661 0.000004919
 0.000004919-0.000000621 0.000033536 0.000004766 0.000012498 0.000012498
 0.000006516 0.000064747 0.000064747
      71
 0.000003258 0.000003258 0.000001822 0.000263617 0.000263617 0.000120579
 0.000120579 0.000047094 0.000009809 0.000009809 0.000004607 0.000003025
 0.000004709 0.000004709 0.000033475 0.000005752 0.000006202 0.000006202
 0.000002306 0.000037699 0.000037699
      72
 0.000001389 0.000001389-0.000002953 0.000315381 0.000315381 0.000048066
 0.000048066 0.000006720 0.000011766 0.000011766 0.000014942 0.000004200
 0.000004200-0.000012538 0.000008580 0.000007363-0.000005894-0.000005894
-0.000001063 0.000008830 0.000008830
      73
 0.000002078 0.000002078-0.000003756 0.000347088 0.000347088 0.000115222
 0.000115222 0.000027328 0.000012945 0.000012945 0.000026532 0.000004149
 0.000004149 0.000008794-0.000039863 0.000009802-0.000012951-0.000012951
-0.000001203 0.000005994 0.000005994
      74
 0.000005641 0.000005641-0.000000411 0.000338588 0.000338588 0.000276735
 0.000276735 0.000071720 0.000009858 0.000009858 0.000034351 0.000004954
 0.000004954-0.000015602 0.000012302-0.000011848-0.000005311-0.000005311
 0.000004023 0.000029038 0.000029038
      75
 0.000009394 0.000009394 0.000003814 0.000278024 0.000278024 0.000423032
 0.000423032 0.000090195 0.000007087 0.000007087 0.000036614 0.000005822
 0.000005822 0.000022398 0.000022398-0.000002188 0.000013759 0.000004176
 0.000015414 0.000054733 0.000054733
      76
 0.000009998 0.000009998 0.000005650 0.000276799 0.000276799 0.000376590
 0.000376590 0.000070544 0.000018759 0.000018759 0.000036381 0.000006154
 0.000006154 0.000056327 0.000056327 0.000033162 0.000013749 0.000016460
 0.000031548 0.000062337 0.000062337
      77
 0.000007849 0.000007849 0.000004336 0.000277212 0.000277212 0.000253471
 0.000253471 0.000045352 0.000048866 0.000048866 0.000038690 0.000006309
 0.000006309 0.000060284 0.000060284 0.000094928 0.000012925 0.000028294
 0.000048659 0.000052995 0.000052995
      78
 0.000005247 0.000005247 0.000001694 0.000273953 0.000273953 0.000189016
 0.000189016 0.000056806 0.000055264 0.000055264 0.000045755 0.000006709
 0.000006709 0.000037328 0.000037328 0.000203797 0.000012631 0.000060962
 0.000035317 0.000042025 0.000042025
      79
 0.000003288 0.000003288 0.000000119 0.000293285 0.000293285 0.000194466
 0.000194466 0.000115562 0.000041687 0.000041687 0.000054152 0.000006347
 0.000006347 0.000357766 0.000021348 0.000021348 0.000015612 0.000060484
 0.000036247 0.000040531 0.000040531
      80
 0.000002102 0.000002102 0.000000402 0.000321059 0.000321059 0.000228135
 0.000228135 0.000192030 0.000038983 0.000038983 0.000056446 0.000005928
 0.000005928 0.000504502 0.000026675 0.000026675 0.000043810 0.000021515
 0.000038320 0.000046090 0.000046090
      81
 0.000001480 0.000001480 0.000001480 0.000333526 0.000333526 0.000241512
 0.000241512 0.000241512 0.000046799 0.000046799 0.000046799 0.000005825
 0.000005825 0.000567026 0.000041980 0.000041980 0.000041980 0.000000080
 0.000046734 0.000046734 0.000046734
      82
 0.000001937 0.000001060 0.000001060 0.000316204 0.000316204 0.000241167
 0.000199386 0.000199386 0.000026726 0.000049973 0.000049973 0.000005698
 0.000005698 0.000499438 0.000013462 0.000048655 0.000048655 0.000000033
 0.000055333 0.000035927 0.000035927
      83
 0.000001397 0.000000842 0.000000842 0.000265839 0.000265839 0.000208237
 0.000116191 0.000116191 0.000006259 0.000039330 0.000039330 0.000004859
 0.000004859 0.000324048-0.000007512 0.000038297 0.000038297-0.000000297
 0.000051859 0.000018675 0.000018675
      84
 0.000000774 0.000001285 0.000001285 0.000213932 0.000213932 0.000181890
 0.000036210 0.000036210-0.000000137 0.000016513 0.000016513 0.000003139
 0.000003139-0.000009550 0.000118958 0.000021792 0.000021792 0.000000449
 0.000036339 0.000000766 0.000000766
      85
 0.000001493 0.000002785 0.000002785 0.000203030 0.000203030 0.000187665
 0.000004038 0.000004038 0.000023355-0.000010861-0.000010861 0.000009116
 0.000000852 0.000000852-0.000036559 0.000015158 0.000015158 0.000002444
 0.000033617-0.000011075-0.000011075
      86
 0.000004240 0.000005197 0.000005197 0.000240468 0.000240468 0.000217988
 0.000031393 0.000031393 0.000103760-0.000024201-0.000024201 0.000020900
-0.000001569-0.000001569-0.000095814 0.000024144 0.000024144 0.000003961
 0.000062419-0.000009736-0.000009736
      87
 0.000008182 0.000007839 0.000007839 0.000298488 0.000298488 0.000085232
 0.000085232 0.000233912 0.000243959 0.000011572-0.000009461-0.000009461
-0.000001305-0.000001305-0.000055703 0.000003452 0.000041494 0.000041494
 0.000105964 0.000004416 0.000004416
      88
 0.000011668 0.000009956 0.000009956 0.000338929 0.000338929 0.000340219
 0.000130927 0.000130927 0.000242986 0.000020031 0.000017018 0.000017018
 0.000004855 0.000004855 0.000027196 0.000001665 0.000054372 0.000054372
 0.000143603 0.000020801 0.000020801
      89
 0.000013385 0.000011234 0.000011234 0.000411689 0.000335767 0.000335767
 0.000158402 0.000158402 0.000215857 0.000024162 0.000032378 0.000032378
 0.000012326 0.000012326 0.000084432 0.000000868 0.000054761 0.000054761
 0.000162388 0.000027619 0.000027619
      90
 0.000012853 0.000011855 0.000011855 0.000434922 0.000289619 0.000289619
 0.000177781 0.000177781 0.000181198 0.000018722 0.000030153 0.000030153
 0.000013459 0.000013459 0.000085697 0.000002783 0.000044166 0.000044166
 0.000162131 0.000022774 0.000022774
      91
 0.000010570 0.000012073 0.000012073 0.000403287 0.000224609 0.000224609
 0.000201787 0.000201787 0.000154260 0.000010557 0.000017498 0.000017498
 0.000008335 0.000008335 0.000049919 0.000007134 0.000030342 0.000030342
 0.000154627 0.000014059 0.000014059
      92
 0.000007970 0.000011820 0.000011820 0.000324857 0.000170261 0.000170261
 0.000226221 0.000226221 0.000134038 0.000006602 0.000005218 0.000005218
 0.000004305 0.000004305 0.000018487 0.000011656 0.000021606 0.000021606
 0.000009642 0.000009642 0.000150542
      93
 0.000010686 0.000010686 0.000006674 0.000220219 0.000143828 0.000143828
 0.000226484 0.000226484 0.000109933 0.000007924 0.000000673 0.000000673
 0.000005457 0.000005457 0.000015843 0.000013676 0.000021873 0.000021873
 0.000010582 0.000010582 0.000148306
      94
 0.000008277 0.000008277 0.000007183 0.000115353 0.000138667 0.000138667
 0.000183602 0.000183602 0.000075810 0.000009832 0.000005964 0.000005964
 0.000006576 0.000006576 0.000034666 0.000012087 0.000027049 0.000027049
 0.000012581 0.000012581 0.000136951
      95
 0.000004785 0.000004785 0.000008224 0.000033247 0.000122149 0.000122149
 0.000120161 0.000120161 0.000040164 0.000006792 0.000015396 0.000015396
 0.000003227 0.000003227 0.000008145 0.000051379 0.000028008 0.000028008
 0.000012841 0.000012841 0.000110495
      96
 0.000007943 0.000001354 0.000001354-0.000012669 0.000082234 0.000082234
 0.000074959 0.000074959 0.000025706-0.000002331 0.000017461 0.000017461
 0.000001636 0.000001636 0.000004597 0.000050942 0.000019678 0.000019678
 0.000014052 0.000014052 0.000078889
      97
 0.000005987-0.000000540-0.000000540-0.000021530 0.000047934 0.000047934
 0.000070346 0.000070347 0.000056344-0.000012654 0.000009714 0.000009714
 0.000007974 0.000007974 0.000003614 0.000038232 0.000006349 0.000006349
 0.000022348 0.000022348 0.000063500
      98
 0.000003875-0.000000269-0.000000269-0.000003545 0.000048103 0.000048103
 0.000114052 0.000114052 0.000138416-0.000016854 0.000000483 0.000000483
 0.000020565 0.000020565 0.000005094 0.000029174-0.000002003-0.000002003
 0.000041420 0.000041420 0.000080319
      99
 0.000003195 0.000001551 0.000001551 0.000025368 0.000060562 0.000060562
 0.000214372 0.000214373 0.000249556-0.000011963-0.000002725-0.000002725
 0.000032299 0.000032299 0.000007247 0.000033267 0.000001954 0.000001954
 0.000125018 0.000067702 0.000067702
     100
 0.000003554 0.000003554 0.000003873 0.000049792 0.000053390 0.000053390
 0.000339422 0.000339422 0.000345618-0.000002969-0.000000443-0.000000443
 0.000034705 0.000034705 0.000008669 0.000045015 0.000017611 0.000017611
 0.000172481 0.000090954 0.000090954
     101
 0.000004408 0.000004408 0.000004408 0.000059163 0.000059163 0.000059163
 0.000383544 0.000383544 0.000383544 0.000001435 0.000001435 0.000001435
 0.000009111 0.000009111 0.000009111 0.000051173 0.000051173 0.000051173
 0.000192743 0.000100251 0.000100251
     102
 0.000003554 0.000003554 0.000003873 0.000049792 0.000053390 0.000053390
 0.000339422 0.000339422 0.000345618-0.000002969-0.000000443-0.000000443
 0.000034705 0.000034705 0.000008669 0.000045015 0.000017611 0.000017611
 0.000172481 0.000090954 0.000090954
     103
 0.000003195 0.000001551 0.000001551 0.000025368 0.000060562 0.000060562
 0.000214372 0.000214373 0.000249556-0.000011963-0.000002725-0.000002725
 0.000032299 0.000032299 0.000007247 0.000033267 0.000001954 0.000001954
 0.000125018 0.000067702 0.000067702
     104
 0.000003875-0.000000269-0.000000269-0.000003545 0.000048103 0.000048103
 0.000114052 0.000114052 0.000138416-0.000016854 0.000000483 0.000000483
 0.000020565 0.000020565 0.000005094 0.000029174-0.000002003-0.000002003
 0.000041420 0.000041420 0.000080319
     105
 0.000005987-0.000000540-0.000000540-0.000021530 0.000047934 0.000047934
 0.000070346 0.000070347 0.000056344-0.000012654 0.000009714 0.000009714
 0.000007974 0.000007974 0.000003614 0.000038232 0.000006349 0.000006349
 0.000022348 0.000022348 0.000063500
     106
 0.000007943 0.000001354 0.000001354-0.000012669 0.000082234 0.000082234
 0.000074959 0.000074959 0.000025706-0.000002331 0.000017461 0.000017461
 0.000001636 0.000001636 0.000004597 0.000050942 0.000019678 0.000019678
 0.000014052 0.000014052 0.000078889
     107
 0.000004785 0.000004785 0.000008224 0.000033247 0.000122149 0.000122149
 0.000120161 0.000120161 0.000040164 0.000006792 0.000015396 0.000015396
 0.000003227 0.000003227 0.000008145 0.000051379 0.000028008 0.000028008
 0.000012841 0.000012841 0.000110495
     108
 0.000008277 0.000008277 0.000007183 0.000115353 0.000138667 0.000138667
 0.000183602 0.000183602 0.000075810 0.000009832 0.000005964 0.000005964
 0.000006576 0.000006576 0.000034666 0.000012087 0.000027049 0.000027049
 0.000012581 0.000012581 0.000136951
     109
 0.000010686 0.000010686 0.000006674 0.000220219 0.000143828 0.000143828
 0.000226484 0.000226484 0.000109933 0.000007924 0.000000673 0.000000673
 0.000005457 0.000005457 0.000015843 0.000013676 0.000021873 0.000021873
 0.000010582 0.000010582 0.000148306
     110
 0.000007970 0.000011820 0.000011820 0.000324857 0.000170261 0.000170261
 0.000226221 0.000226221 0.000134038 0.000006602 0.000005218 0.000005218
 0.000004305 0.000004305 0.000018487 0.000011656 0.000021606 0.000021606
 0.000009642 0.000009642 0.000150542
     111
 0.000010570 0.000012073 0.000012073 0.000403287 0.000224609 0.000224609
 0.000201787 0.000201787 0.000154260 0.000010557 0.000017498 0.000017498
 0.000008335 0.000008335 0.000049919 0.000007134 0.000030342 0.000030342
 0.000154627 0.000014059 0.000014059
     112
 0.000012853 0.000011855 0.000011855 0.000434922 0.000289619 0.000289619
 0.000177781 0.000177781 0.000181198 0.000018722 0.000030153 0.000030153
 0.000013459 0.000013459 0.000085697 0.000002783 0.000044166 0.000044166
 0.000162131 0.000022774 0.000022774
     113
 0.000013385 0.000011234 0.000011234 0.000411689 0.000335767 0.000335767
 0.000158402 0.000158402 0.000215857 0.000024162 0.000032378 0.000032378
 0.000012326 0.000012326 0.000084432 0.000000868 0.000054761 0.000054761
 0.000162388 0.000027619 0.000027619
     114
 0.000011668 0.000009956 0.000009956 0.000338929 0.000338929 0.000340219
 0.000130927 0.000130927 0.000242986 0.000020031 0.000017018 0.000017018
 0.000004855 0.000004855 0.000027196 0.000001665 0.000054372 0.000054372
 0.000143603 0.000020801 0.000020801
     115
 0.000008182 0.000007839 0.000007839 0.000298488 0.000298488 0.000085232
 0.000085232 0.000233912 0.000243959 0.000011572-0.000009461-0.000009461
-0.000001305-0.000001305-0.000055703 0.000003452 0.000041494 0.000041494
 0.000105964 0.000004416 0.000004416
     116
 0.000004240 0.000005197 0.000005197 0.000240468 0.000240468 0.000217988
 0.000031393 0.000031393 0.000103760-0.000024201-0.000024201 0.000020900
-0.000001569-0.000001569-0.000095814 0.000024144 0.000024144 0.000003961
 0.000062419-0.000009736-0.000009736
     117
 0.000001493 0.000002785 0.000002785 0.000203030 0.000203030 0.000187665
 0.000004038 0.000004038 0.000023355-0.000010861-0.000010861 0.000009116
 0.000000852 0.000000852-0.000036559 0.000015158 0.000015158 0.000002444
 0.000033617-0.000011075-0.000011075
     118
 0.000000774 0.000001285 0.000001285 0.000213932 0.000213932 0.000181890
 0.000036210 0.000036210-0.000000137 0.000016513 0.000016513 0.000003139
 0.000003139-0.000009550 0.000118958 0.000021792 0.000021792 0.000000449
 0.000036339 0.000000766 0.000000766
     119
 0.000001397 0.000000842 0.000000842 0.000265839 0.000265839 0.000208237
 0.000116191 0.000116191 0.000006259 0.000039330 0.000039330 0.000004859
 0.000004859 0.000324048-0.000007512 0.000038297 0.000038297-0.000000297
 0.000051859 0.000018675 0.000018675
     120
 0.000001937 0.000001060 0.000001060 0.000316204 0.000316204 0.000241167
 0.000199386 0.000199386 0.000026726 0.000049973 0.000049973 0.000005698
 0.000005698 0.000499438 0.000013462 0.000048655 0.000048655 0.000000033
 0.000055333 0.000035927 0.000035927
     121
 0.000001480 0.000001480 0.000001480 0.000333526 0.000333526 0.000241512
 0.000241512 0.000241512 0.000046799 0.000046799 0.000046799 0.000005825
 0.000005825 0.000567026 0.000041980 0.000041980 0.000041980 0.000000080
 0.000046734 0.000046734 0.000046734
     122
 0.000001890 0.000001518 0.000000972 0.000333148 0.000323908 0.000244975
 0.000231013 0.000220227 0.000037761 0.000046144 0.000052979 0.000006324
 0.000005440 0.000544587 0.000027999 0.000039808 0.000053699 0.000000508
 0.000047505 0.000039252 0.000049493
     123
 0.000002141 0.000001640 0.000000461 0.000331782 0.000296613 0.000231979
 0.000204007 0.000184348 0.000028013 0.000044974 0.000054787 0.000007811
 0.000004509 0.000481735 0.000017626 0.000033975 0.000058127 0.000001625
 0.000049483 0.000028844 0.000047808
     124
 0.000002220 0.000001897 0.000000063 0.000329521 0.000256323 0.000207522
 0.000171508 0.000141288 0.000019629 0.000044976 0.000051937 0.000009052
 0.000003609 0.000392057 0.000016013 0.000026300 0.000053716 0.000002988
 0.000051670 0.000018546 0.000042573
     125
 0.000002159 0.000002384-0.000000127 0.000327917 0.000210723 0.000178491
 0.000145617 0.000100063 0.000015262 0.000047048 0.000045326 0.000009300
 0.000003364 0.000025932 0.000293558 0.000019031 0.000043237 0.000004108
 0.000052635 0.000011079 0.000034303
     126
 0.000002006 0.000003199-0.000000055 0.000329595 0.000169657 0.000151600
 0.000134779 0.000068128 0.000019258 0.000049868 0.000036555 0.000008930
 0.000004038 0.000045528 0.000203447 0.000013872 0.000031261 0.000004817
 0.000051226 0.000007991 0.000024281
     127
 0.000001813 0.000004325 0.000000269 0.000336331 0.000142457 0.000131627
 0.000141779 0.000051774 0.000034281 0.000050381 0.000027362 0.000008866
 0.000068012 0.000005265 0.000133895 0.000011439 0.000021641 0.000005368
 0.000047492 0.000009476 0.000014951
     128
 0.000005551 0.000001626 0.000000769 0.000347248 0.000133434 0.000120487
 0.000164174 0.000056309 0.000056293 0.000046603 0.000019212 0.000010068
 0.000085757 0.000006260 0.000089556 0.000011428 0.000016321 0.000006228
 0.000042855 0.000014503 0.000008909
     129
 0.000006522 0.000001488 0.000001326 0.000358781 0.000139047 0.000079846
 0.000117376 0.000195767 0.000078136 0.000039795 0.000013135 0.000095077
 0.000013099 0.000006447 0.000068120 0.000013099 0.000015078 0.000007860
 0.000039158 0.000021098 0.000007627
     130
 0.000006917 0.000001433 0.000001816 0.000366740 0.000150428 0.000111713
 0.000119727 0.000228117 0.000095263 0.000033072 0.000009696 0.000096268
 0.000017872 0.000005902 0.000063017 0.000015621 0.000016044 0.000010631
 0.000026849 0.000037504 0.000010709
     131
 0.000006615 0.000001475 0.000002146 0.000368975 0.000158939 0.000139406
 0.000124453 0.000252249 0.000105905 0.000028613 0.000008869 0.000091098
 0.000023685 0.000005160 0.000066509 0.000018228 0.000014716 0.000016888
 0.000029611 0.000037941 0.000016036
     132
 0.000005724 0.000001603 0.000002286 0.000366462 0.000154340 0.000160145
 0.000128879 0.000261258 0.000110140 0.000026718 0.000009918 0.000081504
 0.000029680 0.000004712 0.000072032 0.000020295 0.000019957 0.000016109
 0.000028224 0.000039894 0.000020777
     133
 0.000004499 0.000001783 0.000002272 0.000362121 0.000153605 0.000154848
 0.000131169 0.000253202 0.000109632 0.000026490 0.000011637 0.000069419
 0.000035565 0.000075381 0.000004709 0.000021395 0.000025744 0.000013653
 0.000022949 0.000042678 0.000022709
     134
 0.000003241 0.000001965 0.000002201 0.000358932 0.000139317 0.000147961
 0.000130445 0.000232211 0.000107260 0.000026720 0.000012945 0.000056675
 0.000042194 0.000074756 0.000004993 0.000021347 0.000031037 0.000010525
 0.000015430 0.000045713 0.000021159
     135
 0.000002224 0.000002105 0.000002197 0.000358909 0.000116708 0.000146067
 0.000126780 0.000206618 0.000106364 0.000026449 0.000013338 0.000044676
 0.000051579 0.000069912 0.000005288 0.000020218 0.000034566 0.000007958
 0.000008132 0.000048523 0.000017075
     136
 0.000001636 0.000002170 0.000002361 0.000362948 0.000091729 0.000154387
 0.000121036 0.000185259 0.000109833 0.000025220 0.000012883 0.000034097
 0.000066161 0.000061034 0.000005440 0.000018282 0.000035241 0.000003455
 0.000006787 0.000050707 0.000012311
     137
 0.000001541 0.000002153 0.000002725 0.000370859 0.000069051 0.000174229
 0.000114503 0.000174087 0.000119099 0.000023132 0.000011936 0.000024963
 0.000086786 0.000048723 0.000005542 0.000015914 0.000032698 0.000002806
 0.000007218 0.000051992 0.000008610
     138
 0.000001846 0.000002074 0.000003232 0.000381329 0.000051188 0.000202083
 0.000108443 0.000174692 0.000133234 0.000020675 0.000010874 0.000109600
 0.000017159 0.000035701 0.000005809 0.000013504 0.000027685 0.000005998
 0.000008875 0.000052347 0.000006829
     139
 0.000002337 0.000001970 0.000003755 0.000392013 0.000038823 0.000230811
 0.000103746 0.000185564 0.000148784 0.000018444 0.000126229 0.000009968
 0.000010912 0.000025903 0.000006281 0.000011424 0.000021927 0.000011270
 0.000011000 0.000052040 0.000006734
     140
 0.000002763 0.000001884 0.000004146 0.000400056 0.000031695 0.000252282
 0.000100849 0.000160921 0.000208094 0.000016918 0.000124878 0.000009376
 0.000006792 0.000020658 0.000006749 0.000010014 0.000017443 0.000016002
 0.000012730 0.000051546 0.000007362
     141
 0.000002928 0.000001851 0.000004291 0.000403052 0.000029380 0.000260218
 0.000099879 0.000165505 0.000247577 0.000093280 0.000016379 0.000009172
 0.000005347 0.000019103 0.000006943 0.000009515 0.000015764 0.000017885
 0.000013391 0.000051319 0.000007711
 Broadening   0.0150
       1
-0.000000000 0.000000000 0.000000000 0.000002537 0.000002537 0.000002537
 0.002895039 0.002895039 0.002895039 0.000000314 0.000000314 0.000000314
 0.000027556 0.000027556 0.000027556 0.000000982 0.000001384 0.000001384
 0.000001384 0.000971912 0.000971912
       2
 0.000002002 0.000002002 0.000000916 0.000006798 0.000006798 0.000010296
 0.002466642 0.002536348 0.002536348 0.000002906 0.000005282 0.000005282
 0.000023649 0.000023649 0.000023099 0.000001557 0.000003091 0.000003091
 0.000001385 0.000871746 0.000831765
       3
 0.000005292 0.000005292 0.000003538 0.000019866 0.000019866 0.000028876
 0.001530964 0.001679398 0.001679398 0.000011887 0.000021093 0.000021094
 0.000015577 0.000015577 0.000013333 0.000001173 0.000008136 0.000008136
 0.000007817 0.000625351 0.000515753
       4
 0.000006432 0.000006432 0.000007009 0.000035889 0.000035889 0.000046566
 0.000778748 0.000809447 0.000809447 0.000025680 0.000040898 0.000040898
 0.000009081 0.000009080 0.000005360-0.000000237 0.000013168 0.000013168
 0.000022351 0.000352803 0.000236280
       5
 0.000005651 0.000005651 0.000009633 0.000042323 0.000042323 0.000572843
 0.000051972 0.000299332 0.000299332 0.000034781 0.000051324 0.000051324
 0.000005175 0.000005175 0.000002890 0.000000315 0.000011969 0.000011969
 0.000027955 0.000153474 0.000121572
       6
 0.000004992 0.000004992 0.000010372 0.000038727 0.000038727 0.000697745
 0.000044581 0.000160085 0.000160085 0.000031059 0.000053604 0.000053604
 0.000002357 0.000002357 0.000003773 0.000003685 0.000004490 0.000004490
 0.000010193 0.000051283 0.000132802
       7
 0.000005416 0.000005416 0.000010002 0.000039106 0.000039106 0.000732929
 0.000041368 0.000170281 0.000170281 0.000021347 0.000050854 0.000050854
 0.000001443 0.000001443 0.000003935 0.000007276-0.000002932-0.000002932
-0.000017954 0.000016163 0.000154572
       8
 0.000006021 0.000006021 0.000009826 0.000545428 0.000039668 0.000039668
 0.000070218 0.000165569 0.000165569 0.000020632 0.000046535 0.000046535
 0.000004135 0.000004135 0.000002302 0.000008283-0.000018452-0.000005898
-0.000005898 0.000013829 0.000131718
       9
 0.000005928 0.000005928 0.000010160 0.000345051 0.000037280 0.000037280
 0.000141571 0.000127959 0.000127959 0.000044295 0.000044295 0.000033765
 0.000009122 0.000009122 0.000001067 0.000005882 0.000045446-0.000004158
-0.000004158 0.000018500 0.000100312
      10
 0.000005729 0.000005729 0.000010644 0.000337398 0.000037883 0.000037883
 0.000224089 0.000102128 0.000102128 0.000039717 0.000039717 0.000145052
 0.000050038 0.000012440 0.000012440 0.000002035 0.000011181 0.000000823
 0.000000823 0.000022167 0.000108639
      11
 0.000006135 0.000006135 0.000010817 0.000465280 0.000037421 0.000037421
 0.000235399 0.000260653 0.000105433 0.000105433 0.000029275 0.000029275
 0.000010880 0.000010880 0.000006720 0.000004253 0.000058211 0.000006529
 0.000006529 0.000023129 0.000147444
      12
 0.000006678 0.000006678 0.000010207 0.000527688 0.000030964 0.000030964
 0.000255318 0.000113643 0.000113643 0.000219048 0.000019588 0.000019588
 0.000006235 0.000006235 0.000005753 0.000005548 0.000062136 0.000008264
 0.000008264 0.000019651 0.000168631
      13
 0.000006668 0.000006668 0.000008579 0.000452880 0.000023249 0.000023249
 0.000209782 0.000113445 0.000113445 0.000015289 0.000015289 0.000133411
 0.000004687 0.000004687 0.000005244 0.000005263 0.000003822 0.000003822
 0.000067628 0.000017385 0.000148132
      14
 0.000006575 0.000006575 0.000006332 0.000022724 0.000022724 0.000355756
 0.000139374 0.000117998 0.000117998 0.000011670 0.000011670 0.000071974
 0.000004129 0.000007867 0.000007867 0.000004489-0.000000740-0.000000739
 0.000071737 0.000021241 0.000106847
      15
 0.000007027 0.000007027 0.000004297 0.000030568 0.000030568 0.000078804
 0.000350414 0.000126579 0.000126579 0.000007654 0.000007654 0.000003384
 0.000009771 0.000009771 0.000053405 0.000004092 0.000002094 0.000002094
 0.000081917 0.000024934 0.000076031
      16
 0.000007137 0.000007137 0.000003037 0.000036756 0.000037931 0.000037931
[...]
 0.000006449 0.000035407 0.000035407
      68
 0.000005023 0.000005023 0.000000338 0.000106071 0.000106071 0.000253365
 0.000253365 0.000118256 0.000009704 0.000018504 0.000018504 0.000008135
 0.000004172 0.000004172 0.000000030 0.000003525 0.000006009 0.000006009
 0.000009843 0.000035358 0.000035358
      69
 0.000005749 0.000005749 0.000001480 0.000141712 0.000141712 0.000251711
 0.000251711 0.000103498 0.000023194 0.000023194 0.000012605 0.000010487
 0.000005352 0.000005352 0.000000247 0.000005285 0.000012350 0.000012350
 0.000011353 0.000040525 0.000040525
      70
 0.000005679 0.000005679 0.000002170 0.000183619 0.000183619 0.000235633
 0.000235633 0.000083080 0.000025565 0.000025565 0.000010431 0.000006631
 0.000006631 0.000002486 0.000015805 0.000005738 0.000014314 0.000014314
 0.000010470 0.000043004 0.000043004
      71
 0.000005044 0.000005044 0.000001729 0.000227955 0.000227955 0.000218626
 0.000218626 0.000064880 0.000024220 0.000024220 0.000007330 0.000005049
 0.000007943 0.000007943 0.000020551 0.000005024 0.000009378 0.000009378
 0.000008133 0.000041475 0.000041475
      72
 0.000004561 0.000004561 0.000000883 0.000265857 0.000265857 0.000219361
 0.000219361 0.000059094 0.000021087 0.000021087 0.000014635 0.000009288
 0.000009288 0.000000409 0.000025171 0.000004439 0.000001383 0.000001383
 0.000006570 0.000039734 0.000039734
      73
 0.000004846 0.000004846 0.000000609 0.000288065 0.000288065 0.000243793
 0.000243793 0.000064949 0.000018352 0.000018352 0.000023143 0.000010768
 0.000010768 0.000005559 0.000029358 0.000005559-0.000000926-0.000000926
 0.000008302 0.000042653 0.000042653
      74
 0.000005841 0.000005841 0.000001139 0.000290298 0.000290298 0.000280022
 0.000280022 0.000071808 0.000017074 0.000017074 0.000031037 0.000012288
 0.000012288 0.000054635 0.000008755 0.000004015 0.000011731 0.000011731
 0.000014628 0.000050640 0.000050640
      75
 0.000006710 0.000006710 0.000001964 0.000284276 0.000284276 0.000300236
 0.000300236 0.000069756 0.000019436 0.000019436 0.000036913 0.000013305
 0.000013305 0.000041681 0.000041681 0.000084947 0.000012503 0.000007786
 0.000024653 0.000057487 0.000057487
      76
 0.000006815 0.000006815 0.000002445 0.000305712 0.000305712 0.000270489
 0.000270489 0.000058798 0.000031808 0.000031808 0.000040457 0.000012812
 0.000012812 0.000070845 0.000070845 0.000112945 0.000014290 0.000013959
 0.000035572 0.000057330 0.000057330
      77
 0.000006510 0.000006510 0.000002336 0.000310807 0.000310807 0.000259954
 0.000259954 0.000049935 0.000048765 0.000048765 0.000042360 0.000010809
 0.000010809 0.000073922 0.000073922 0.000132581 0.000012742 0.000019815
 0.000043937 0.000051285 0.000051285
      78
 0.000006044 0.000006044 0.000001909 0.000304591 0.000304591 0.000279156
 0.000279156 0.000058077 0.000048906 0.000048906 0.000043567 0.000009288
 0.000009288 0.000059204 0.000059204 0.000144404 0.000009259 0.000047082
 0.000023067 0.000043942 0.000043942
      79
 0.000005029 0.000005029 0.000001682 0.000325172 0.000325172 0.000270032
 0.000270032 0.000092360 0.000042890 0.000042890 0.000044479 0.000007693
 0.000007693 0.000152526 0.000045770 0.000045770 0.000008076 0.000043365
 0.000023968 0.000038336 0.000038336
      80
 0.000003588 0.000003588 0.000001991 0.000342619 0.000342619 0.000247330
 0.000247330 0.000150049 0.000042046 0.000042046 0.000044747 0.000006639
 0.000006639 0.000158754 0.000040175 0.000040175 0.000027948 0.000017789
 0.000025773 0.000034661 0.000034661
      81
 0.000002688 0.000002688 0.000002688 0.000348820 0.000348820 0.000217182
 0.000217182 0.000217182 0.000043776 0.000043776 0.000043776 0.000006351
 0.000006351 0.000161491 0.000040790 0.000040790 0.000040790 0.000000133
 0.000031267 0.000031267 0.000031267
      82
 0.000003138 0.000002882 0.000002882 0.000341394 0.000341394 0.000275618
 0.000183669 0.000183669 0.000041490 0.000042133 0.000042133 0.000006485
 0.000006485 0.000157802 0.000035234 0.000043095 0.000043095 0.000000759
 0.000039908 0.000027427 0.000027427
      83
 0.000002868 0.000003746 0.000003746 0.000318523 0.000318523 0.000310741
 0.000152270 0.000152270 0.000038887 0.000035715 0.000035715 0.000006657
 0.000006657 0.000145766 0.000029640 0.000043319 0.000043319 0.000000406
 0.000049276 0.000023977 0.000023977
      84
 0.000002552 0.000004669 0.000004669 0.000286221 0.000286221 0.000315268
 0.000125251 0.000125251 0.000038460 0.000028363 0.000028363 0.000006692
 0.000006692 0.000026661 0.000125214 0.000041105 0.000041105-0.000000932
 0.000059485 0.000020642 0.000020642
      85
 0.000003295 0.000005471 0.000005471 0.000256452 0.000256452 0.000291098
 0.000105664 0.000105664 0.000046179 0.000022333 0.000022333 0.000029160
 0.000006474 0.000006474 0.000096798 0.000037754 0.000037754-0.000001565
 0.000075022 0.000016980 0.000016980
      86
 0.000005137 0.000006264 0.000006264 0.000237107 0.000237107 0.000249401
 0.000098799 0.000098799 0.000080807 0.000017363 0.000017363 0.000027878
 0.000005908 0.000005908 0.000067597 0.000034385 0.000034385-0.000000296
 0.000094741 0.000013574 0.000013574
      87
 0.000007308 0.000007131 0.000007131 0.000227823 0.000227823 0.000105043
 0.000105043 0.000155050 0.000205875 0.000013434 0.000014971 0.000014971
 0.000005453 0.000005453 0.000052330 0.000002010 0.000031498 0.000031498
 0.000106170 0.000011401 0.000011401
      88
 0.000009061 0.000008015 0.000008015 0.000223262 0.000223262 0.000235342
 0.000120252 0.000120252 0.000172602 0.000009169 0.000015364 0.000015364
 0.000006001 0.000006001 0.000052037 0.000003834 0.000029276 0.000029276
 0.000107413 0.000010860 0.000010860
      89
 0.000009973 0.000008769 0.000008769 0.000303988 0.000217067 0.000217067
 0.000140356 0.000140356 0.000152595 0.000009004 0.000016412 0.000016412
 0.000007218 0.000007218 0.000057140 0.000004774 0.000027935 0.000027935
 0.000107371 0.000011596 0.000011596
      90
 0.000009949 0.000009269 0.000009269 0.000337974 0.000205140 0.000205140
 0.000162080 0.000162080 0.000141072 0.000008980 0.000016482 0.000016482
 0.000007846 0.000007846 0.000060176 0.000005373 0.000027376 0.000027376
 0.000113835 0.000012839 0.000012839
      91
 0.000009228 0.000009469 0.000009469 0.000322188 0.000187768 0.000187768
 0.000181400 0.000181400 0.000130824 0.000008413 0.000015358 0.000015358
 0.000007714 0.000007714 0.000058932 0.000006171 0.000026909 0.000026909
 0.000128590 0.000013663 0.000013663
      92
 0.000008335 0.000009371 0.000009371 0.000261045 0.000168898 0.000168898
 0.000193123 0.000193123 0.000117874 0.000007342 0.000013606 0.000013606
 0.000007920 0.000007920 0.000055211 0.000007201 0.000025886 0.000025886
 0.000013246 0.000013246 0.000146360
      93
 0.000008957 0.000008957 0.000007825 0.000177042 0.000153231 0.000153231
 0.000192927 0.000192927 0.000104369 0.000005974 0.000011749 0.000011749
 0.000009250 0.000009250 0.000051747 0.000008089 0.000024293 0.000024293
 0.000011538 0.000011538 0.000157758
      94
 0.000008171 0.000008171 0.000007925 0.000099019 0.000144083 0.000144083
 0.000179698 0.000179698 0.000096926 0.000004475 0.000009997 0.000009997
 0.000011205 0.000011205 0.000049639 0.000008445 0.000022418 0.000022418
 0.000010191 0.000010191 0.000155574
      95
 0.000007006 0.000007006 0.000008356 0.000047666 0.000138845 0.000138845
 0.000160321 0.000160321 0.000102016 0.000002991 0.000008241 0.000008241
 0.000012740 0.000012740 0.000008160 0.000047947 0.000020547 0.000020547
 0.000012812 0.000012812 0.000140252
      96
 0.000008499 0.000005636 0.000005636 0.000027083 0.000132997 0.000132997
 0.000144950 0.000144950 0.000121799 0.000001784 0.000005975 0.000005975
 0.000013704 0.000013704 0.000007411 0.000045385 0.000019107 0.000019107
 0.000023721 0.000023721 0.000120128
      97
 0.000007820 0.000004393 0.000004393 0.000026927 0.000125792 0.000125792
 0.000139308 0.000139308 0.000152824 0.000001140 0.000003243 0.000003243
 0.000014671 0.000014671 0.000006520 0.000041974 0.000018613 0.000018613
 0.000045416 0.000045416 0.000106181
      98
 0.000006331 0.000003551 0.000003551 0.000032426 0.000114017 0.000114017
 0.000148427 0.000148428 0.000187766 0.000000986 0.000001060 0.000001060
 0.000016004 0.000016004 0.000005851 0.000038932 0.000019318 0.000019318
 0.000076089 0.000076089 0.000105044
      99
 0.000004644 0.000003155 0.000003155 0.000034368 0.000079739 0.000079739
 0.000187661 0.000187661 0.000218597 0.000000931 0.000000231 0.000000231
 0.000017541 0.000017541 0.000005625 0.000037305 0.000021004 0.000021004
 0.000114966 0.000108952 0.000108952
     100
 0.000003051 0.000003051 0.000003451 0.000032388 0.000036767 0.000036767
 0.000237469 0.000237469 0.000239222 0.000000781 0.000000441 0.000000441
 0.000018201 0.000018201 0.000005724 0.000036983 0.000023400 0.000023400
 0.000127372 0.000134371 0.000134371
     101
 0.000003045 0.000003045 0.000003045 0.000030889 0.000030889 0.000030889
 0.000246404 0.000246404 0.000246404 0.000000688 0.000000688 0.000000688
 0.000005815 0.000005815 0.000005815 0.000037051 0.000037051 0.000037051
 0.000132840 0.000143949 0.000143949
     102
 0.000003051 0.000003051 0.000003451 0.000032388 0.000036767 0.000036767
 0.000237469 0.000237469 0.000239222 0.000000781 0.000000441 0.000000441
 0.000018201 0.000018201 0.000005724 0.000036983 0.000023400 0.000023400
 0.000127372 0.000134371 0.000134371
     103
 0.000004644 0.000003155 0.000003155 0.000034368 0.000079739 0.000079739
 0.000187661 0.000187661 0.000218597 0.000000931 0.000000231 0.000000231
 0.000017541 0.000017541 0.000005625 0.000037305 0.000021004 0.000021004
 0.000114966 0.000108952 0.000108952
     104
 0.000006331 0.000003551 0.000003551 0.000032426 0.000114017 0.000114017
 0.000148427 0.000148428 0.000187766 0.000000986 0.000001060 0.000001060
 0.000016004 0.000016004 0.000005851 0.000038932 0.000019318 0.000019318
 0.000076089 0.000076089 0.000105044
     105
 0.000007820 0.000004393 0.000004393 0.000026927 0.000125792 0.000125792
 0.000139308 0.000139308 0.000152824 0.000001140 0.000003243 0.000003243
 0.000014671 0.000014671 0.000006520 0.000041974 0.000018613 0.000018613
 0.000045416 0.000045416 0.000106181
     106
 0.000008499 0.000005636 0.000005636 0.000027083 0.000132997 0.000132997
 0.000144950 0.000144950 0.000121799 0.000001784 0.000005975 0.000005975
 0.000013704 0.000013704 0.000007411 0.000045385 0.000019107 0.000019107
 0.000023721 0.000023721 0.000120128
     107
 0.000007006 0.000007006 0.000008356 0.000047666 0.000138845 0.000138845
 0.000160321 0.000160321 0.000102016 0.000002991 0.000008241 0.000008241
 0.000012740 0.000012740 0.000008160 0.000047947 0.000020547 0.000020547
 0.000012812 0.000012812 0.000140252
     108
 0.000008171 0.000008171 0.000007925 0.000099019 0.000144083 0.000144083
 0.000179698 0.000179698 0.000096926 0.000004475 0.000009997 0.000009997
 0.000011205 0.000011205 0.000049639 0.000008445 0.000022418 0.000022418
 0.000010191 0.000010191 0.000155574
     109
 0.000008957 0.000008957 0.000007825 0.000177042 0.000153231 0.000153231
 0.000192927 0.000192927 0.000104369 0.000005974 0.000011749 0.000011749
 0.000009250 0.000009250 0.000051747 0.000008089 0.000024293 0.000024293
 0.000011538 0.000011538 0.000157758
     110
 0.000008335 0.000009371 0.000009371 0.000261045 0.000168898 0.000168898
 0.000193123 0.000193123 0.000117874 0.000007342 0.000013606 0.000013606
 0.000007920 0.000007920 0.000055211 0.000007201 0.000025886 0.000025886
 0.000013246 0.000013246 0.000146360
     111
 0.000009228 0.000009469 0.000009469 0.000322188 0.000187768 0.000187768
 0.000181400 0.000181400 0.000130824 0.000008413 0.000015358 0.000015358
 0.000007714 0.000007714 0.000058932 0.000006171 0.000026909 0.000026909
 0.000128590 0.000013663 0.000013663
     112
 0.000009949 0.000009269 0.000009269 0.000337974 0.000205140 0.000205140
 0.000162080 0.000162080 0.000141072 0.000008980 0.000016482 0.000016482
 0.000007846 0.000007846 0.000060176 0.000005373 0.000027376 0.000027376
 0.000113835 0.000012839 0.000012839
     113
 0.000009973 0.000008769 0.000008769 0.000303988 0.000217067 0.000217067
 0.000140356 0.000140356 0.000152595 0.000009004 0.000016412 0.000016412
 0.000007218 0.000007218 0.000057140 0.000004774 0.000027935 0.000027935
 0.000107371 0.000011596 0.000011596
     114
 0.000009061 0.000008015 0.000008015 0.000223262 0.000223262 0.000235342
 0.000120252 0.000120252 0.000172602 0.000009169 0.000015364 0.000015364
 0.000006001 0.000006001 0.000052037 0.000003834 0.000029276 0.000029276
 0.000107413 0.000010860 0.000010860
     115
 0.000007308 0.000007131 0.000007131 0.000227823 0.000227823 0.000105043
 0.000105043 0.000155050 0.000205875 0.000013434 0.000014971 0.000014971
 0.000005453 0.000005453 0.000052330 0.000002010 0.000031498 0.000031498
 0.000106170 0.000011401 0.000011401
     116
 0.000005137 0.000006264 0.000006264 0.000237107 0.000237107 0.000249401
 0.000098799 0.000098799 0.000080807 0.000017363 0.000017363 0.000027878
 0.000005908 0.000005908 0.000067597 0.000034385 0.000034385-0.000000296
 0.000094741 0.000013574 0.000013574
     117
 0.000003295 0.000005471 0.000005471 0.000256452 0.000256452 0.000291098
 0.000105664 0.000105664 0.000046179 0.000022333 0.000022333 0.000029160
 0.000006474 0.000006474 0.000096798 0.000037754 0.000037754-0.000001565
 0.000075022 0.000016980 0.000016980
     118
 0.000002552 0.000004669 0.000004669 0.000286221 0.000286221 0.000315268
 0.000125251 0.000125251 0.000038460 0.000028363 0.000028363 0.000006692
 0.000006692 0.000026661 0.000125214 0.000041105 0.000041105-0.000000932
 0.000059485 0.000020642 0.000020642
     119
 0.000002868 0.000003746 0.000003746 0.000318523 0.000318523 0.000310741
 0.000152270 0.000152270 0.000038887 0.000035715 0.000035715 0.000006657
 0.000006657 0.000145766 0.000029640 0.000043319 0.000043319 0.000000406
 0.000049276 0.000023977 0.000023977
     120
 0.000003138 0.000002882 0.000002882 0.000341394 0.000341394 0.000275618
 0.000183669 0.000183669 0.000041490 0.000042133 0.000042133 0.000006485
 0.000006485 0.000157802 0.000035234 0.000043095 0.000043095 0.000000759
 0.000039908 0.000027427 0.000027427
     121
 0.000002688 0.000002688 0.000002688 0.000348820 0.000348820 0.000217182
 0.000217182 0.000217182 0.000043776 0.000043776 0.000043776 0.000006351
 0.000006351 0.000161491 0.000040790 0.000040790 0.000040790 0.000000133
 0.000031267 0.000031267 0.000031267
     122
 0.000003014 0.000003061 0.000002337 0.000348994 0.000344164 0.000247976
 0.000217050 0.000183874 0.000042332 0.000043538 0.000043996 0.000006562
 0.000006340 0.000160361 0.000039020 0.000040017 0.000043036 0.000000975
 0.000031846 0.000027466 0.000034854
     123
 0.000003235 0.000004073 0.000002034 0.000349334 0.000330881 0.000271845
 0.000216812 0.000152792 0.000040000 0.000043064 0.000043001 0.000007468
 0.000006325 0.000156893 0.000039369 0.000037864 0.000044318 0.000003317
 0.000033489 0.000023831 0.000038228
     124
 0.000003295 0.000005439 0.000001838 0.000349456 0.000310931 0.000285716
 0.000216801 0.000127624 0.000038031 0.000042923 0.000040906 0.000009078
 0.000006362 0.000151593 0.000043119 0.000034840 0.000044116 0.000006602
 0.000035919 0.000021004 0.000041282
     125
 0.000003178 0.000006792 0.000001787 0.000349128 0.000287324 0.000288381
 0.000217250 0.000109941 0.000039032 0.000043621 0.000037860 0.000011293
 0.000006516 0.000050582 0.000145257 0.000031701 0.000042892 0.000010029
 0.000038713 0.000019520 0.000043614
     126
 0.000002927 0.000007805 0.000001890 0.000348482 0.000263776 0.000280586
 0.000218141 0.000099879 0.000045858 0.000045135 0.000034036 0.000014179
 0.000006821 0.000060449 0.000138488 0.000029102 0.000041375 0.000012906
 0.000041403 0.000019615 0.000044858
     127
 0.000002618 0.000008289 0.000002129 0.000347968 0.000244145 0.000264720
 0.000219288 0.000098324 0.000058537 0.000046698 0.000029672 0.000017886
 0.000070137 0.000007228 0.000131571 0.000027278 0.000039980 0.000014985
 0.000043610 0.000021228 0.000044816
     128
 0.000008227 0.000002323 0.000002462 0.000348164 0.000231372 0.000244169
 0.000220529 0.000106549 0.000073247 0.000047220 0.000025142 0.000022535
 0.000077508 0.000007617 0.000124481 0.000026064 0.000038598 0.000016478
 0.000045154 0.000024020 0.000043383
     129
 0.000007743 0.000002088 0.000002840 0.000349652 0.000226285 0.000122236
 0.000222440 0.000221824 0.000086367 0.000046141 0.000021035 0.000081959
 0.000028086 0.000007878 0.000117064 0.000025154 0.000036672 0.000017846
 0.000046045 0.000027416 0.000040525
     130
 0.000007039 0.000001930 0.000003218 0.000353042 0.000227380 0.000139223
 0.000202312 0.000223150 0.000097119 0.000043761 0.000018050 0.000083666
 0.000034219 0.000007994 0.000109318 0.000024310 0.000033565 0.000019560
 0.000030682 0.000046411 0.000036365
     131
 0.000006318 0.000001845 0.000003564 0.000358989 0.000231881 0.000151348
 0.000185371 0.000224338 0.000106267 0.000040782 0.000016638 0.000082620
 0.000040364 0.000008028 0.000101535 0.000023425 0.000021916 0.000029101
 0.000033095 0.000046424 0.000031286
     132
 0.000005726 0.000001821 0.000003866 0.000367991 0.000154914 0.000237109
 0.000172110 0.000225093 0.000114888 0.000037783 0.000016649 0.000078534
 0.000045960 0.000008051 0.000094174 0.000022475 0.000024913 0.000023857
 0.000034126 0.000046282 0.000025931
     133
 0.000005328 0.000001844 0.000004125 0.000380014 0.000149109 0.000241351
 0.000162387 0.000225200 0.000124011 0.000035048 0.000017440 0.000071146
 0.000050862 0.000087549 0.000008079 0.000021435 0.000028220 0.000018869
 0.000033572 0.000046194 0.000021062
     134
 0.000005112 0.000001898 0.000004364 0.000394270 0.000135524 0.000244113
 0.000155855 0.000224646 0.000134349 0.000032627 0.000018363 0.000060597
 0.000055684 0.000081511 0.000008082 0.000020243 0.000031258 0.000014999
 0.000031586 0.000046336 0.000017361
     135
 0.000005010 0.000001970 0.000004614 0.000409419 0.000117249 0.000245876
 0.000152153 0.000223511 0.000145880 0.000030456 0.000019092 0.000047770
 0.000061904 0.000075261 0.000008025 0.000018835 0.000033344 0.000012566
 0.000028594 0.000046798 0.000015274
     136
 0.000004940 0.000002048 0.000004907 0.000424019 0.000097776 0.000247542
 0.000150871 0.000221790 0.000157628 0.000028460 0.000019606 0.000034385
 0.000071511 0.000067436 0.000007931 0.000017212 0.000033887 0.000025161
 0.000011404 0.000047561 0.000014930
     137
 0.000004834 0.000002125 0.000005249 0.000436915 0.000080006 0.000249809
 0.000151448 0.000219408 0.000168125 0.000026633 0.000020001 0.000022477
 0.000085624 0.000057128 0.000007901 0.000015483 0.000032631 0.000021844
 0.000011127 0.000048511 0.000016113
     138
 0.000004665 0.000002192 0.000005612 0.000447390 0.000065687 0.000252760
 0.000153138 0.000216547 0.000176303 0.000025046 0.000020348 0.000102134
 0.000013452 0.000045844 0.000008035 0.000013840 0.000029889 0.000019076
 0.000011346 0.000049487 0.000018287
     139
 0.000004461 0.000002244 0.000005941 0.000455070 0.000055490 0.000255845
 0.000155114 0.000214619 0.000181894 0.000023812 0.000115625 0.000020649
 0.000007612 0.000036813 0.000008313 0.000012492 0.000026576 0.000017094
 0.000011746 0.000050327 0.000020697
     140
 0.000004290 0.000002278 0.000006173 0.000459760 0.000049464 0.000258202
 0.000156635 0.000185097 0.000220279 0.000023031 0.000117080 0.000020861
 0.000004500 0.000031595 0.000008588 0.000011611 0.000023908 0.000015946
 0.000012092 0.000050894 0.000022550
     141
 0.000004223 0.000002289 0.000006256 0.000461339 0.000047478 0.000259084
 0.000157201 0.000186139 0.000247111 0.000092588 0.000022764 0.000020939
 0.000003541 0.000029954 0.000008701 0.000011306 0.000022890 0.000015575
 0.000012226 0.000051094 0.000023243
 
     MATDYN       :     14.16s CPU     21.34s WALL

 
   This run was terminated on:  13:55:36  26Oct2022            

=------------------------------------------------------------------------------=
   JOB DONE.
=------------------------------------------------------------------------------=
