
     Program PHONON v.6.8 starts on 21Jul2022 at 18:37: 8 

     This program is part of the open-source Quantum ESPRESSO suite
     for quantum simulation of materials; please cite
         "P. Giannozzi et al., J. Phys.:Condens. Matter 21 395502 (2009);
         "P. Giannozzi et al., J. Phys.:Condens. Matter 29 465901 (2017);
         "P. Giannozzi et al., J. Chem. Phys. 152 154105 (2020);
          URL http://www.quantum-espresso.org", 
     in publications or presentations arising from this work. More details at
     http://www.quantum-espresso.org/quote

     Parallel version (MPI), running on    48 processors

     MPI processes distributed on     1 nodes
     K-points division:     npool     =       4
     R & G space division:  proc/nbgrp/npool/nimage =      12
     188670 MiB available memory on the printing compute node when the environment starts
 
     Waiting for input...
     Reading input from standard input

     Reading xml data from directory:

     ./tmp/Ca1H6.save/

     IMPORTANT: XC functional enforced from input :
     Exchange-correlation= PBE
                           (   1   4   3   4   0   0   0)
     Any further DFT definition will be discarded
     Please, verify this is what you really want

 
     Parallelization info
     --------------------
     sticks:   dense  smooth     PW     G-vecs:    dense   smooth      PW
     Min         139      46     17                 3602      698     155
     Max         140      47     18                 3604      701     157
     Sum        1669     557    205                43227     8391    1865
 
     Using Slab Decomposition
 
     Reading collected, re-writing distributed wavefunctions

     Saving dvscf to file. Distribute only q points, not irreducible represetations.

     Calculation of q =    0.0000000   0.0000000   0.2165064

     Subspace diagonalization in iterative solution of the eigenvalue problem:
     a serial algorithm will be used

 
     Parallelization info
     --------------------
     sticks:   dense  smooth     PW     G-vecs:    dense   smooth      PW
     Min         139      46     17                 3602      698     155
     Max         140      47     18                 3604      701     157
     Sum        1669     557    205                43227     8391    1865
 
     Using Slab Decomposition
 

     Title: 
     Electron-phonon coefficients for Ca1H6                                     


     bravais-lattice index     =            0
     lattice parameter (alat)  =       5.5613  a.u.
     unit-cell volume          =     132.4087 (a.u.)^3
     number of atoms/cell      =            7
     number of atomic types    =            2
     number of electrons       =        16.00
     number of Kohn-Sham states=           12
     kinetic-energy cutoff     =      60.0000  Ry
     charge density cutoff     =     720.0000  Ry
     Exchange-correlation= PBE
                           (   1   4   3   4   0   0   0)

     celldm(1)=   5.561340  celldm(2)=   0.000000  celldm(3)=   0.000000
     celldm(4)=   0.000000  celldm(5)=   0.000000  celldm(6)=   0.000000

     crystal axes: (cart. coord. in units of alat)
               a(1) = (  -0.577350   0.577350   0.577350 )  
               a(2) = (   0.577350  -0.577350   0.577350 )  
               a(3) = (   0.577350   0.577350  -0.577350 )  

     reciprocal axes: (cart. coord. in units 2 pi/alat)
               b(1) = ( -0.000000  0.866025  0.866025 )  
               b(2) = (  0.866025 -0.000000  0.866025 )  
               b(3) = (  0.866025  0.866025  0.000000 )  


     PseudoPot. # 1 for Ca read from file:
     /work/home/mayuan/code/my_script/scripts_tests/out2/200.0/pp/ca_pbe_v1.uspp.F.UPF
     MD5 check sum: 403a4c14b9e4d4dfdc3024c9a3812218
     Pseudo is Ultrasoft + core correction, Zval = 10.0
     Generated by new atomic code, or converted to UPF format
     Using radial grid of  845 points,  6 beta functions with: 
                l(1) =   0
                l(2) =   0
                l(3) =   1
                l(4) =   1
                l(5) =   2
                l(6) =   2
     Q(r) pseudized with  8 coefficients,  rinner =    1.500   1.500   1.500
                                                       1.500   1.500

     PseudoPot. # 2 for H  read from file:
     /work/home/mayuan/code/my_script/scripts_tests/out2/200.0/pp/h_pbe_v1.uspp.F.UPF
     MD5 check sum: 3408e3ff4ec8b0a4e358431e7e038a48
     Pseudo is Ultrasoft, Zval =  1.0
     Generated by new atomic code, or converted to UPF format
     Using radial grid of  615 points,  2 beta functions with: 
                l(1) =   0
                l(2) =   0
     Q(r) pseudized with  8 coefficients,  rinner =    0.700

     atomic species   valence    mass     pseudopotential
        Ca            10.00    40.07800     Ca( 1.00)
        H              1.00     1.00794     H ( 1.00)

     48 Sym. Ops., with inversion, found



   Cartesian axes

     site n.     atom                  positions (alat units)
         1           Ca  tau(   1) = (   0.0000000   0.0000000   0.0000000  )
         2           H   tau(   2) = (   0.2886751   0.0000000   0.5773503  )
         3           H   tau(   3) = (   0.2886751   0.5773503   0.0000000  )
         4           H   tau(   4) = (   0.5773503   0.2886751   0.0000000  )
         5           H   tau(   5) = (   0.0000000   0.2886751   0.5773503  )
         6           H   tau(   6) = (   0.0000000   0.5773503   0.2886751  )
         7           H   tau(   7) = (   0.5773503   0.0000000   0.2886751  )

     number of k points=  1296  Methfessel-Paxton smearing, width (Ry)=  0.0200

     Number of k-points >= 100: set verbosity='high' to print them.

     Dense  grid:    43227 G-vectors     FFT dimensions: (  48,  48,  48)

     Smooth grid:     8391 G-vectors     FFT dimensions: (  27,  27,  27)

     Estimated max dynamical RAM per process >       8.30 MB

     Estimated total dynamical RAM >     398.33 MB

     The potential is recalculated from file :
     ./tmp/_ph0/Ca1H6.save/charge-density

     Starting wfcs are   16 atomic wfcs

     Band Structure Calculation
     Davidson diagonalization with overlap

     ethr =  6.25E-11,  avg # of iterations = 14.8

     total cpu time spent up to now is       10.3 secs

     End of band structure calculation

     Number of k-points >= 100: set verbosity='high' to print the bands.

     the Fermi energy is    17.0980 ev

     Writing output data file ./tmp/_ph0/Ca1H6.save/

     Electron-phonon coefficients for Ca1H6                                     

     bravais-lattice index     =            0
     lattice parameter (alat)  =       5.5613  a.u.
     unit-cell volume          =     132.4087 (a.u.)^3
     number of atoms/cell      =            7
     number of atomic types    =            2
     kinetic-energy cut-off    =      60.0000  Ry
     charge density cut-off    =     720.0000  Ry
     convergence threshold     =      1.0E-16
     beta                      =       0.7000
     number of iterations used =            4
     Exchange-correlation= PBE
                           (   1   4   3   4   0   0   0)


     celldm(1)=    5.56134  celldm(2)=    0.00000  celldm(3)=    0.00000
     celldm(4)=    0.00000  celldm(5)=    0.00000  celldm(6)=    0.00000

     crystal axes: (cart. coord. in units of alat)
               a(1) = ( -0.5774  0.5774  0.5774 )  
               a(2) = (  0.5774 -0.5774  0.5774 )  
               a(3) = (  0.5774  0.5774 -0.5774 )  

     reciprocal axes: (cart. coord. in units 2 pi/alat)
               b(1) = ( -0.0000  0.8660  0.8660 )  
               b(2) = (  0.8660 -0.0000  0.8660 )  
               b(3) = (  0.8660  0.8660  0.0000 )  


     Atoms inside the unit cell: 

     Cartesian axes

     site n.  atom      mass           positions (alat units)
        1     Ca  40.0780   tau(    1) = (    0.00000    0.00000    0.00000  )
        2     H    1.0079   tau(    2) = (    0.28868    0.00000    0.57735  )
        3     H    1.0079   tau(    3) = (    0.28868    0.57735    0.00000  )
        4     H    1.0079   tau(    4) = (    0.57735    0.28868    0.00000  )
        5     H    1.0079   tau(    5) = (    0.00000    0.28868    0.57735  )
        6     H    1.0079   tau(    6) = (    0.00000    0.57735    0.28868  )
        7     H    1.0079   tau(    7) = (    0.57735    0.00000    0.28868  )

     Computing dynamical matrix for 
                    q = (   0.0000000   0.0000000   0.2165064 )
 
      8 Sym.Ops. (no q -> -q+G )


     G cutoff =  564.0682  (   3604 G-vectors)     FFT grid: ( 48, 48, 48)
     G cutoff =  188.0227  (    699 G-vectors)  smooth grid: ( 27, 27, 27)

     number of k points=  1296  Methfessel-Paxton smearing, width (Ry)=  0.0200

     PseudoPot. # 1 for Ca read from file:
     /work/home/mayuan/code/my_script/scripts_tests/out2/200.0/pp/ca_pbe_v1.uspp.F.UPF
     MD5 check sum: 403a4c14b9e4d4dfdc3024c9a3812218
     Pseudo is Ultrasoft + core correction, Zval = 10.0
     Generated by new atomic code, or converted to UPF format
     Using radial grid of  845 points,  6 beta functions with: 
                l(1) =   0
                l(2) =   0
                l(3) =   1
                l(4) =   1
                l(5) =   2
                l(6) =   2
     Q(r) pseudized with  8 coefficients,  rinner =    1.500   1.500   1.500
                                                       1.500   1.500

     PseudoPot. # 2 for H  read from file:
     /work/home/mayuan/code/my_script/scripts_tests/out2/200.0/pp/h_pbe_v1.uspp.F.UPF
     MD5 check sum: 3408e3ff4ec8b0a4e358431e7e038a48
     Pseudo is Ultrasoft, Zval =  1.0
     Generated by new atomic code, or converted to UPF format
     Using radial grid of  615 points,  2 beta functions with: 
                l(1) =   0
                l(2) =   0
     Q(r) pseudized with  8 coefficients,  rinner =    0.700

     Mode symmetry, C_4v (4mm)  point group:


     Atomic displacements:
     There are   15 irreducible representations

     Representation     1      1 modes -  To be done

     Representation     2      1 modes -  To be done

     Representation     3      1 modes -  To be done

     Representation     4      1 modes -  To be done

     Representation     5      1 modes -  To be done

     Representation     6      1 modes -  To be done

     Representation     7      1 modes -  To be done

     Representation     8      1 modes -  To be done

     Representation     9      1 modes -  To be done

     Representation    10      2 modes -  To be done

     Representation    11      2 modes -  To be done

     Representation    12      2 modes -  To be done

     Representation    13      2 modes -  To be done

     Representation    14      2 modes -  To be done

     Representation    15      2 modes -  To be done



     Alpha used in Ewald sum =   2.8000
     PHONON       :     17.25s CPU     23.32s WALL



     Representation #   1 mode #   1

     Self-consistent Calculation

      iter #   1 total cpu time :    27.9 secs   av.it.:   4.4
      thresh= 1.000E-02 alpha_mix =  0.700 |ddv_scf|^2 =  5.012E-04

      iter #   2 total cpu time :    34.5 secs   av.it.:   8.1
      thresh= 2.239E-03 alpha_mix =  0.700 |ddv_scf|^2 =  6.476E-02

      iter #   3 total cpu time :    41.4 secs   av.it.:   6.5
      thresh= 1.000E-02 alpha_mix =  0.700 |ddv_scf|^2 =  2.173E-07

      iter #   4 total cpu time :    48.4 secs   av.it.:   8.6
      thresh= 4.662E-05 alpha_mix =  0.700 |ddv_scf|^2 =  1.141E-08

      iter #   5 total cpu time :    55.9 secs   av.it.:   8.5
      thresh= 1.068E-05 alpha_mix =  0.700 |ddv_scf|^2 =  1.088E-10

      iter #   6 total cpu time :    66.6 secs   av.it.:   8.5
      thresh= 1.043E-06 alpha_mix =  0.700 |ddv_scf|^2 =  4.481E-09

      iter #   7 total cpu time :    75.6 secs   av.it.:   6.0
      thresh= 6.694E-06 alpha_mix =  0.700 |ddv_scf|^2 =  6.826E-12

      iter #   8 total cpu time :    85.3 secs   av.it.:   8.6
      thresh= 2.613E-07 alpha_mix =  0.700 |ddv_scf|^2 =  7.414E-13

      iter #   9 total cpu time :    94.2 secs   av.it.:   8.5
      thresh= 8.611E-08 alpha_mix =  0.700 |ddv_scf|^2 =  1.269E-12

      iter #  10 total cpu time :   102.9 secs   av.it.:   7.2
      thresh= 1.127E-07 alpha_mix =  0.700 |ddv_scf|^2 =  5.940E-14

      iter #  11 total cpu time :   111.6 secs   av.it.:   7.7
      thresh= 2.437E-08 alpha_mix =  0.700 |ddv_scf|^2 =  4.924E-15

      iter #  12 total cpu time :   119.7 secs   av.it.:   8.2
      thresh= 7.017E-09 alpha_mix =  0.700 |ddv_scf|^2 =  1.337E-15

      iter #  13 total cpu time :   127.2 secs   av.it.:   7.3
      thresh= 3.656E-09 alpha_mix =  0.700 |ddv_scf|^2 =  2.442E-16

      iter #  14 total cpu time :   135.2 secs   av.it.:   7.7
      thresh= 1.563E-09 alpha_mix =  0.700 |ddv_scf|^2 =  1.060E-18

     End of self-consistent calculation

     Convergence has been achieved 


     Representation #   2 mode #   2

     Self-consistent Calculation

      iter #   1 total cpu time :   143.7 secs   av.it.:   4.2
      thresh= 1.000E-02 alpha_mix =  0.700 |ddv_scf|^2 =  8.286E-04

      iter #   2 total cpu time :   151.3 secs   av.it.:   8.1
      thresh= 2.879E-03 alpha_mix =  0.700 |ddv_scf|^2 =  1.073E-01

      iter #   3 total cpu time :   158.8 secs   av.it.:   6.8
      thresh= 1.000E-02 alpha_mix =  0.700 |ddv_scf|^2 =  1.236E-07

      iter #   4 total cpu time :   166.4 secs   av.it.:   7.5
      thresh= 3.516E-05 alpha_mix =  0.700 |ddv_scf|^2 =  5.438E-11

      iter #   5 total cpu time :   172.6 secs   av.it.:   9.3
      thresh= 7.375E-07 alpha_mix =  0.700 |ddv_scf|^2 =  3.327E-11

      iter #   6 total cpu time :   180.9 secs   av.it.:   8.2
      thresh= 5.768E-07 alpha_mix =  0.700 |ddv_scf|^2 =  2.928E-13

      iter #   7 total cpu time :   189.2 secs   av.it.:   8.6
      thresh= 5.411E-08 alpha_mix =  0.700 |ddv_scf|^2 =  2.329E-14

      iter #   8 total cpu time :   198.4 secs   av.it.:   8.6
      thresh= 1.526E-08 alpha_mix =  0.700 |ddv_scf|^2 =  7.351E-16

      iter #   9 total cpu time :   207.3 secs   av.it.:   8.8
      thresh= 2.711E-09 alpha_mix =  0.700 |ddv_scf|^2 =  6.518E-17

     End of self-consistent calculation

     Convergence has been achieved 


     Representation #   3 mode #   3

     Self-consistent Calculation

      iter #   1 total cpu time :   215.5 secs   av.it.:   7.1
      thresh= 1.000E-02 alpha_mix =  0.700 |ddv_scf|^2 =  3.980E-02

      iter #   2 total cpu time :   224.4 secs   av.it.:   8.8
      thresh= 1.000E-02 alpha_mix =  0.700 |ddv_scf|^2 =  5.163E+00

      iter #   3 total cpu time :   232.4 secs   av.it.:   8.7
      thresh= 1.000E-02 alpha_mix =  0.700 |ddv_scf|^2 =  1.076E-06

      iter #   4 total cpu time :   241.2 secs   av.it.:   9.6
      thresh= 1.037E-04 alpha_mix =  0.700 |ddv_scf|^2 =  2.055E-06

      iter #   5 total cpu time :   249.1 secs   av.it.:   8.1
      thresh= 1.433E-04 alpha_mix =  0.700 |ddv_scf|^2 =  7.194E-09

      iter #   6 total cpu time :   256.0 secs   av.it.:   8.2
      thresh= 8.482E-06 alpha_mix =  0.700 |ddv_scf|^2 =  8.464E-10

      iter #   7 total cpu time :   263.5 secs   av.it.:   7.8
      thresh= 2.909E-06 alpha_mix =  0.700 |ddv_scf|^2 =  1.373E-12

      iter #   8 total cpu time :   270.7 secs   av.it.:   8.0
      thresh= 1.172E-07 alpha_mix =  0.700 |ddv_scf|^2 =  4.239E-13

      iter #   9 total cpu time :   279.2 secs   av.it.:   7.3
      thresh= 6.511E-08 alpha_mix =  0.700 |ddv_scf|^2 =  1.969E-15

      iter #  10 total cpu time :   286.9 secs   av.it.:   7.4
      thresh= 4.437E-09 alpha_mix =  0.700 |ddv_scf|^2 =  3.801E-16

      iter #  11 total cpu time :   294.1 secs   av.it.:   6.4
      thresh= 1.950E-09 alpha_mix =  0.700 |ddv_scf|^2 =  2.574E-16

      iter #  12 total cpu time :   301.8 secs   av.it.:   7.6
      thresh= 1.604E-09 alpha_mix =  0.700 |ddv_scf|^2 =  1.008E-18

     End of self-consistent calculation

     Convergence has been achieved 


     Representation #   4 mode #   4

     Self-consistent Calculation

      iter #   1 total cpu time :   309.1 secs   av.it.:   4.6
      thresh= 1.000E-02 alpha_mix =  0.700 |ddv_scf|^2 =  1.077E-03

      iter #   2 total cpu time :   316.2 secs   av.it.:   8.1
      thresh= 3.282E-03 alpha_mix =  0.700 |ddv_scf|^2 =  1.392E-01

      iter #   3 total cpu time :   323.1 secs   av.it.:   6.9
      thresh= 1.000E-02 alpha_mix =  0.700 |ddv_scf|^2 =  4.041E-07

      iter #   4 total cpu time :   330.3 secs   av.it.:   8.0
      thresh= 6.357E-05 alpha_mix =  0.700 |ddv_scf|^2 =  6.246E-09

      iter #   5 total cpu time :   339.2 secs   av.it.:   8.5
      thresh= 7.903E-06 alpha_mix =  0.700 |ddv_scf|^2 =  5.204E-11

      iter #   6 total cpu time :   346.4 secs   av.it.:   8.8
      thresh= 7.214E-07 alpha_mix =  0.700 |ddv_scf|^2 =  3.612E-09

      iter #   7 total cpu time :   354.0 secs   av.it.:   5.7
      thresh= 6.010E-06 alpha_mix =  0.700 |ddv_scf|^2 =  2.442E-12

      iter #   8 total cpu time :   362.4 secs   av.it.:   8.8
      thresh= 1.563E-07 alpha_mix =  0.700 |ddv_scf|^2 =  8.952E-14

      iter #   9 total cpu time :   370.9 secs   av.it.:   9.2
      thresh= 2.992E-08 alpha_mix =  0.700 |ddv_scf|^2 =  6.411E-14

      iter #  10 total cpu time :   378.6 secs   av.it.:   7.4
      thresh= 2.532E-08 alpha_mix =  0.700 |ddv_scf|^2 =  9.746E-14

      iter #  11 total cpu time :   384.8 secs   av.it.:   6.9
      thresh= 3.122E-08 alpha_mix =  0.700 |ddv_scf|^2 =  5.354E-16

      iter #  12 total cpu time :   392.8 secs   av.it.:   8.8
      thresh= 2.314E-09 alpha_mix =  0.700 |ddv_scf|^2 =  2.482E-16

      iter #  13 total cpu time :   402.5 secs   av.it.:   8.0
      thresh= 1.575E-09 alpha_mix =  0.700 |ddv_scf|^2 =  3.066E-16

      iter #  14 total cpu time :   411.1 secs   av.it.:   7.2
      thresh= 1.751E-09 alpha_mix =  0.700 |ddv_scf|^2 =  4.552E-19

     End of self-consistent calculation

     Convergence has been achieved 


     Representation #   5 mode #   5

     Self-consistent Calculation

      iter #   1 total cpu time :   417.2 secs   av.it.:   2.9
      thresh= 1.000E-02 alpha_mix =  0.700 |ddv_scf|^2 =  4.249E-09

      iter #   2 total cpu time :   424.3 secs   av.it.:   8.1
      thresh= 6.518E-06 alpha_mix =  0.700 |ddv_scf|^2 =  4.040E-10

      iter #   3 total cpu time :   431.3 secs   av.it.:   6.9
      thresh= 2.010E-06 alpha_mix =  0.700 |ddv_scf|^2 =  1.843E-13

      iter #   4 total cpu time :   438.5 secs   av.it.:   7.7
      thresh= 4.293E-08 alpha_mix =  0.700 |ddv_scf|^2 =  8.569E-16

      iter #   5 total cpu time :   446.9 secs   av.it.:   7.4
      thresh= 2.927E-09 alpha_mix =  0.700 |ddv_scf|^2 =  6.377E-18

     End of self-consistent calculation

     Convergence has been achieved 


     Representation #   6 mode #   6

     Self-consistent Calculation

      iter #   1 total cpu time :   453.5 secs   av.it.:   3.5
      thresh= 1.000E-02 alpha_mix =  0.700 |ddv_scf|^2 =  8.100E-08

      iter #   2 total cpu time :   459.9 secs   av.it.:   8.7
      thresh= 2.846E-05 alpha_mix =  0.700 |ddv_scf|^2 =  5.413E-09

      iter #   3 total cpu time :   468.5 secs   av.it.:   8.7
      thresh= 7.357E-06 alpha_mix =  0.700 |ddv_scf|^2 =  1.140E-10

      iter #   4 total cpu time :   477.6 secs   av.it.:   8.4
      thresh= 1.068E-06 alpha_mix =  0.700 |ddv_scf|^2 =  3.016E-12

      iter #   5 total cpu time :   485.1 secs   av.it.:   8.3
      thresh= 1.737E-07 alpha_mix =  0.700 |ddv_scf|^2 =  1.415E-14

      iter #   6 total cpu time :   494.0 secs   av.it.:   8.9
      thresh= 1.189E-08 alpha_mix =  0.700 |ddv_scf|^2 =  9.088E-17

     End of self-consistent calculation

     Convergence has been achieved 


     Representation #   7 mode #   7

     Self-consistent Calculation

      iter #   1 total cpu time :   500.0 secs   av.it.:   3.6
      thresh= 1.000E-02 alpha_mix =  0.700 |ddv_scf|^2 =  1.363E-07

      iter #   2 total cpu time :   508.1 secs   av.it.:   8.6
      thresh= 3.691E-05 alpha_mix =  0.700 |ddv_scf|^2 =  8.299E-09

      iter #   3 total cpu time :   516.4 secs   av.it.:   8.7
      thresh= 9.110E-06 alpha_mix =  0.700 |ddv_scf|^2 =  1.539E-10

      iter #   4 total cpu time :   525.4 secs   av.it.:   8.5
      thresh= 1.241E-06 alpha_mix =  0.700 |ddv_scf|^2 =  4.586E-12

      iter #   5 total cpu time :   533.3 secs   av.it.:   8.3
      thresh= 2.142E-07 alpha_mix =  0.700 |ddv_scf|^2 =  2.520E-14

      iter #   6 total cpu time :   541.4 secs   av.it.:   8.8
      thresh= 1.587E-08 alpha_mix =  0.700 |ddv_scf|^2 =  1.330E-16

      iter #   7 total cpu time :   551.3 secs   av.it.:   8.4
      thresh= 1.153E-09 alpha_mix =  0.700 |ddv_scf|^2 =  7.795E-18

     End of self-consistent calculation

     Convergence has been achieved 


     Representation #   8 mode #   8

     Self-consistent Calculation

      iter #   1 total cpu time :   560.5 secs   av.it.:   3.5
      thresh= 1.000E-02 alpha_mix =  0.700 |ddv_scf|^2 =  9.076E-08

      iter #   2 total cpu time :   567.6 secs   av.it.:   8.7
      thresh= 3.013E-05 alpha_mix =  0.700 |ddv_scf|^2 =  7.344E-09

      iter #   3 total cpu time :   574.8 secs   av.it.:   8.7
      thresh= 8.570E-06 alpha_mix =  0.700 |ddv_scf|^2 =  1.009E-10

      iter #   4 total cpu time :   580.7 secs   av.it.:   8.3
      thresh= 1.005E-06 alpha_mix =  0.700 |ddv_scf|^2 =  1.283E-12

      iter #   5 total cpu time :   587.1 secs   av.it.:   8.2
      thresh= 1.133E-07 alpha_mix =  0.700 |ddv_scf|^2 =  6.327E-15

      iter #   6 total cpu time :   594.9 secs   av.it.:   8.9
      thresh= 7.955E-09 alpha_mix =  0.700 |ddv_scf|^2 =  3.978E-17

     End of self-consistent calculation

     Convergence has been achieved 


     Representation #   9 mode #   9

     Self-consistent Calculation

      iter #   1 total cpu time :   603.2 secs   av.it.:   3.9
      thresh= 1.000E-02 alpha_mix =  0.700 |ddv_scf|^2 =  9.758E-08

      iter #   2 total cpu time :   610.3 secs   av.it.:   8.6
      thresh= 3.124E-05 alpha_mix =  0.700 |ddv_scf|^2 =  6.265E-10

      iter #   3 total cpu time :   617.6 secs   av.it.:   8.6
      thresh= 2.503E-06 alpha_mix =  0.700 |ddv_scf|^2 =  3.584E-11

      iter #   4 total cpu time :   624.6 secs   av.it.:   8.5
      thresh= 5.986E-07 alpha_mix =  0.700 |ddv_scf|^2 =  1.238E-13

      iter #   5 total cpu time :   632.0 secs   av.it.:   9.0
      thresh= 3.519E-08 alpha_mix =  0.700 |ddv_scf|^2 =  5.449E-16

      iter #   6 total cpu time :   640.0 secs   av.it.:   8.2
      thresh= 2.334E-09 alpha_mix =  0.700 |ddv_scf|^2 =  3.586E-18

     End of self-consistent calculation

     Convergence has been achieved 


     Representation #  10 modes #  10  11

     Self-consistent Calculation

      iter #   1 total cpu time :   652.1 secs   av.it.:   3.7
      thresh= 1.000E-02 alpha_mix =  0.700 |ddv_scf|^2 =  8.337E-09

      iter #   2 total cpu time :   666.1 secs   av.it.:  10.2
      thresh= 9.130E-06 alpha_mix =  0.700 |ddv_scf|^2 =  3.305E-10

      iter #   3 total cpu time :   680.7 secs   av.it.:  10.3
      thresh= 1.818E-06 alpha_mix =  0.700 |ddv_scf|^2 =  3.120E-11

      iter #   4 total cpu time :   694.8 secs   av.it.:  10.1
      thresh= 5.586E-07 alpha_mix =  0.700 |ddv_scf|^2 =  9.777E-13

      iter #   5 total cpu time :   710.7 secs   av.it.:  10.1
      thresh= 9.888E-08 alpha_mix =  0.700 |ddv_scf|^2 =  2.954E-14

      iter #   6 total cpu time :   725.7 secs   av.it.:  10.3
      thresh= 1.719E-08 alpha_mix =  0.700 |ddv_scf|^2 =  5.502E-16

      iter #   7 total cpu time :   739.7 secs   av.it.:  10.2
      thresh= 2.346E-09 alpha_mix =  0.700 |ddv_scf|^2 =  1.092E-17

     End of self-consistent calculation

     Convergence has been achieved 


     Representation #  11 modes #  12  13

     Self-consistent Calculation

      iter #   1 total cpu time :   759.2 secs   av.it.:   3.6
      thresh= 1.000E-02 alpha_mix =  0.700 |ddv_scf|^2 =  1.103E-08

      iter #   2 total cpu time :   772.0 secs   av.it.:  10.3
      thresh= 1.050E-05 alpha_mix =  0.700 |ddv_scf|^2 =  7.085E-10

      iter #   3 total cpu time :   786.3 secs   av.it.:  10.4
      thresh= 2.662E-06 alpha_mix =  0.700 |ddv_scf|^2 =  3.522E-11

      iter #   4 total cpu time :   799.4 secs   av.it.:  10.1
      thresh= 5.935E-07 alpha_mix =  0.700 |ddv_scf|^2 =  8.875E-13

      iter #   5 total cpu time :   813.7 secs   av.it.:  10.3
      thresh= 9.421E-08 alpha_mix =  0.700 |ddv_scf|^2 =  1.486E-14

      iter #   6 total cpu time :   828.6 secs   av.it.:  10.3
      thresh= 1.219E-08 alpha_mix =  0.700 |ddv_scf|^2 =  3.062E-16

      iter #   7 total cpu time :   839.7 secs   av.it.:  10.1
      thresh= 1.750E-09 alpha_mix =  0.700 |ddv_scf|^2 =  7.446E-18

     End of self-consistent calculation

     Convergence has been achieved 


     Representation #  12 modes #  14  15

     Self-consistent Calculation

      iter #   1 total cpu time :   859.2 secs   av.it.:   6.4
      thresh= 1.000E-02 alpha_mix =  0.700 |ddv_scf|^2 =  2.488E-06

      iter #   2 total cpu time :   873.1 secs   av.it.:  10.4
      thresh= 1.577E-04 alpha_mix =  0.700 |ddv_scf|^2 =  2.843E-07

      iter #   3 total cpu time :   886.9 secs   av.it.:  10.3
      thresh= 5.332E-05 alpha_mix =  0.700 |ddv_scf|^2 =  8.726E-10

      iter #   4 total cpu time :   903.5 secs   av.it.:  10.0
      thresh= 2.954E-06 alpha_mix =  0.700 |ddv_scf|^2 =  1.585E-11

      iter #   5 total cpu time :   920.4 secs   av.it.:  10.2
      thresh= 3.981E-07 alpha_mix =  0.700 |ddv_scf|^2 =  3.884E-13

      iter #   6 total cpu time :   935.9 secs   av.it.:  10.1
      thresh= 6.232E-08 alpha_mix =  0.700 |ddv_scf|^2 =  3.610E-15

      iter #   7 total cpu time :   950.6 secs   av.it.:   9.7
      thresh= 6.008E-09 alpha_mix =  0.700 |ddv_scf|^2 =  1.856E-16

      iter #   8 total cpu time :   963.7 secs   av.it.:  10.1
      thresh= 1.362E-09 alpha_mix =  0.700 |ddv_scf|^2 =  1.205E-18

     End of self-consistent calculation

     Convergence has been achieved 


     Representation #  13 modes #  16  17

     Self-consistent Calculation

      iter #   1 total cpu time :   980.7 secs   av.it.:   3.9
      thresh= 1.000E-02 alpha_mix =  0.700 |ddv_scf|^2 =  1.771E-08

      iter #   2 total cpu time :   994.0 secs   av.it.:  10.4
      thresh= 1.331E-05 alpha_mix =  0.700 |ddv_scf|^2 =  7.289E-10

      iter #   3 total cpu time :  1009.5 secs   av.it.:  10.6
      thresh= 2.700E-06 alpha_mix =  0.700 |ddv_scf|^2 =  4.749E-11

      iter #   4 total cpu time :  1024.6 secs   av.it.:  10.3
      thresh= 6.891E-07 alpha_mix =  0.700 |ddv_scf|^2 =  1.913E-12

      iter #   5 total cpu time :  1041.8 secs   av.it.:  10.2
      thresh= 1.383E-07 alpha_mix =  0.700 |ddv_scf|^2 =  4.624E-14

      iter #   6 total cpu time :  1057.9 secs   av.it.:  10.0
      thresh= 2.150E-08 alpha_mix =  0.700 |ddv_scf|^2 =  4.411E-16

      iter #   7 total cpu time :  1070.8 secs   av.it.:  10.1
      thresh= 2.100E-09 alpha_mix =  0.700 |ddv_scf|^2 =  1.562E-17

     End of self-consistent calculation

     Convergence has been achieved 


     Representation #  14 modes #  18  19

     Self-consistent Calculation

      iter #   1 total cpu time :  1088.7 secs   av.it.:   3.9
      thresh= 1.000E-02 alpha_mix =  0.700 |ddv_scf|^2 =  2.128E-08

      iter #   2 total cpu time :  1103.0 secs   av.it.:  10.3
      thresh= 1.459E-05 alpha_mix =  0.700 |ddv_scf|^2 =  9.317E-10

      iter #   3 total cpu time :  1117.3 secs   av.it.:  10.5
      thresh= 3.052E-06 alpha_mix =  0.700 |ddv_scf|^2 =  4.458E-11

      iter #   4 total cpu time :  1131.5 secs   av.it.:  10.3
      thresh= 6.677E-07 alpha_mix =  0.700 |ddv_scf|^2 =  1.931E-12

      iter #   5 total cpu time :  1145.9 secs   av.it.:  10.3
      thresh= 1.390E-07 alpha_mix =  0.700 |ddv_scf|^2 =  4.777E-14

      iter #   6 total cpu time :  1160.7 secs   av.it.:  10.2
      thresh= 2.186E-08 alpha_mix =  0.700 |ddv_scf|^2 =  4.711E-16

      iter #   7 total cpu time :  1177.1 secs   av.it.:  10.2
      thresh= 2.171E-09 alpha_mix =  0.700 |ddv_scf|^2 =  1.385E-17

     End of self-consistent calculation

     Convergence has been achieved 


     Representation #  15 modes #  20  21

     Self-consistent Calculation

      iter #   1 total cpu time :  1194.2 secs   av.it.:   4.0
      thresh= 1.000E-02 alpha_mix =  0.700 |ddv_scf|^2 =  2.568E-08

      iter #   2 total cpu time :  1208.9 secs   av.it.:  10.2
      thresh= 1.602E-05 alpha_mix =  0.700 |ddv_scf|^2 =  1.587E-09

      iter #   3 total cpu time :  1224.4 secs   av.it.:  10.3
      thresh= 3.984E-06 alpha_mix =  0.700 |ddv_scf|^2 =  5.349E-11

      iter #   4 total cpu time :  1238.9 secs   av.it.:  10.2
      thresh= 7.313E-07 alpha_mix =  0.700 |ddv_scf|^2 =  1.725E-12

      iter #   5 total cpu time :  1254.2 secs   av.it.:  10.1
      thresh= 1.313E-07 alpha_mix =  0.700 |ddv_scf|^2 =  4.248E-14

      iter #   6 total cpu time :  1268.0 secs   av.it.:  10.1
      thresh= 2.061E-08 alpha_mix =  0.700 |ddv_scf|^2 =  5.358E-16

      iter #   7 total cpu time :  1281.5 secs   av.it.:  10.1
      thresh= 2.315E-09 alpha_mix =  0.700 |ddv_scf|^2 =  1.885E-17

     End of self-consistent calculation

     Convergence has been achieved 
 
     Number of q in the star =    6
     List of q in the star:
          1  -0.000000000   0.000000000   0.216506400
          2   0.216506400  -0.000000000   0.000000000
          3  -0.216506400  -0.000000000  -0.000000000
          4  -0.000000000   0.216506400   0.000000000
          5  -0.000000000  -0.216506400  -0.000000000
          6   0.000000000   0.000000000  -0.216506400

     Diagonalizing the dynamical matrix

     q = (    0.000000000   0.000000000   0.216506400 ) 

 **************************************************************************
     freq (    1) =       4.820825 [THz] =     160.805420 [cm-1]
     freq (    2) =       4.820825 [THz] =     160.805420 [cm-1]
     freq (    3) =      10.770187 [THz] =     359.254758 [cm-1]
     freq (    4) =      31.708733 [THz] =    1057.689482 [cm-1]
     freq (    5) =      31.708733 [THz] =    1057.689482 [cm-1]
     freq (    6) =      33.504379 [THz] =    1117.585799 [cm-1]
     freq (    7) =      35.038524 [THz] =    1168.759361 [cm-1]
     freq (    8) =      36.111301 [THz] =    1204.543329 [cm-1]
     freq (    9) =      36.111301 [THz] =    1204.543329 [cm-1]
     freq (   10) =      39.635681 [THz] =    1322.103992 [cm-1]
     freq (   11) =      41.082131 [THz] =    1370.352372 [cm-1]
     freq (   12) =      41.082131 [THz] =    1370.352372 [cm-1]
     freq (   13) =      43.762627 [THz] =    1459.764102 [cm-1]
     freq (   14) =      43.762627 [THz] =    1459.764102 [cm-1]
     freq (   15) =      44.335061 [THz] =    1478.858445 [cm-1]
     freq (   16) =      45.033897 [THz] =    1502.169098 [cm-1]
     freq (   17) =      49.976130 [THz] =    1667.024262 [cm-1]
     freq (   18) =      49.976130 [THz] =    1667.024262 [cm-1]
     freq (   19) =      50.590412 [THz] =    1687.514496 [cm-1]
     freq (   20) =      60.320830 [THz] =    2012.086319 [cm-1]
     freq (   21) =      63.138861 [THz] =    2106.085690 [cm-1]
 **************************************************************************

     Mode symmetry, C_4v (4mm)  point group:

     freq (   1-   2) =        160.8  [cm-1]   --> E    G_5 D_5       
     freq (   3-   3) =        359.3  [cm-1]   --> A_1  G_1 D_1       
     freq (   4-   5) =       1057.7  [cm-1]   --> E    G_5 D_5       
     freq (   6-   6) =       1117.6  [cm-1]   --> B_2  G_4 D_2'      
     freq (   7-   7) =       1168.8  [cm-1]   --> A_1  G_1 D_1       
     freq (   8-   9) =       1204.5  [cm-1]   --> E    G_5 D_5       
     freq (  10-  10) =       1322.1  [cm-1]   --> A_1  G_1 D_1       
     freq (  11-  12) =       1370.4  [cm-1]   --> E    G_5 D_5       
     freq (  13-  14) =       1459.8  [cm-1]   --> E    G_5 D_5       
     freq (  15-  15) =       1478.9  [cm-1]   --> A_2  G_2 D_1'      
     freq (  16-  16) =       1502.2  [cm-1]   --> B_1  G_3 D_2       
     freq (  17-  18) =       1667.0  [cm-1]   --> E    G_5 D_5       
     freq (  19-  19) =       1687.5  [cm-1]   --> B_1  G_3 D_2       
     freq (  20-  20) =       2012.1  [cm-1]   --> B_1  G_3 D_2       
     freq (  21-  21) =       2106.1  [cm-1]   --> A_1  G_1 D_1       
     electron-phonon interaction  ...

     Gaussian Broadening:   0.005 Ry, ngauss=   0
     DOS =  1.900675 states/spin/Ry/Unit Cell at Ef= 17.155196 eV
     lambda(    1)=  0.1675   gamma=    7.07 GHz
     lambda(    2)=  0.1792   gamma=    7.56 GHz
     lambda(    3)=  0.1401   gamma=   29.50 GHz
     lambda(    4)=  0.0216   gamma=   39.37 GHz
     lambda(    5)=  0.0215   gamma=   39.23 GHz
     lambda(    6)=  1.5019   gamma= 3060.11 GHz
     lambda(    7)=  0.1450   gamma=  323.07 GHz
     lambda(    8)=  0.1474   gamma=  348.90 GHz
     lambda(    9)=  0.1402   gamma=  331.88 GHz
     lambda(   10)=  0.1151   gamma=  328.29 GHz
     lambda(   11)=  0.0215   gamma=   65.82 GHz
     lambda(   12)=  0.0201   gamma=   61.49 GHz
     lambda(   13)=  0.0012   gamma=    4.13 GHz
     lambda(   14)=  0.0012   gamma=    4.20 GHz
     lambda(   15)=  0.0030   gamma=   10.60 GHz
     lambda(   16)=  0.0017   gamma=    6.30 GHz
     lambda(   17)=  0.0011   gamma=    5.12 GHz
     lambda(   18)=  0.0012   gamma=    5.36 GHz
     lambda(   19)=  0.0107   gamma=   49.75 GHz
     lambda(   20)=  0.0705   gamma=  465.80 GHz
     lambda(   21)=  0.0302   gamma=  218.21 GHz
     Gaussian Broadening:   0.010 Ry, ngauss=   0
     DOS =  2.130656 states/spin/Ry/Unit Cell at Ef= 17.149400 eV
     lambda(    1)=  0.2779   gamma=   13.14 GHz
     lambda(    2)=  0.2792   gamma=   13.20 GHz
     lambda(    3)=  0.1422   gamma=   33.57 GHz
     lambda(    4)=  0.0506   gamma=  103.51 GHz
     lambda(    5)=  0.0506   gamma=  103.51 GHz
     lambda(    6)=  1.2151   gamma= 2775.26 GHz
     lambda(    7)=  0.0700   gamma=  174.87 GHz
     lambda(    8)=  0.1754   gamma=  465.35 GHz
     lambda(    9)=  0.1730   gamma=  459.09 GHz
     lambda(   10)=  0.0455   gamma=  145.29 GHz
     lambda(   11)=  0.0411   gamma=  141.18 GHz
     lambda(   12)=  0.0405   gamma=  139.10 GHz
     lambda(   13)=  0.0020   gamma=    7.97 GHz
     lambda(   14)=  0.0020   gamma=    7.98 GHz
     lambda(   15)=  0.0030   gamma=   11.98 GHz
     lambda(   16)=  0.0024   gamma=    9.84 GHz
     lambda(   17)=  0.0025   gamma=   12.77 GHz
     lambda(   18)=  0.0025   gamma=   12.87 GHz
     lambda(   19)=  0.0069   gamma=   36.00 GHz
     lambda(   20)=  0.0301   gamma=  222.72 GHz
     lambda(   21)=  0.0604   gamma=  489.56 GHz
     Gaussian Broadening:   0.015 Ry, ngauss=   0
     DOS =  2.235086 states/spin/Ry/Unit Cell at Ef= 17.146382 eV
     lambda(    1)=  0.3311   gamma=   16.42 GHz
     lambda(    2)=  0.3307   gamma=   16.40 GHz
     lambda(    3)=  0.1378   gamma=   34.11 GHz
     lambda(    4)=  0.0594   gamma=  127.47 GHz
     lambda(    5)=  0.0594   gamma=  127.55 GHz
     lambda(    6)=  0.9581   gamma= 2295.55 GHz
     lambda(    7)=  0.0561   gamma=  146.93 GHz
     lambda(    8)=  0.1901   gamma=  529.07 GHz
     lambda(    9)=  0.1885   gamma=  524.74 GHz
     lambda(   10)=  0.0305   gamma=  102.27 GHz
     lambda(   11)=  0.0492   gamma=  177.32 GHz
     lambda(   12)=  0.0487   gamma=  175.52 GHz
     lambda(   13)=  0.0019   gamma=    7.84 GHz
     lambda(   14)=  0.0019   gamma=    7.83 GHz
     lambda(   15)=  0.0030   gamma=   12.49 GHz
     lambda(   16)=  0.0029   gamma=   12.35 GHz
     lambda(   17)=  0.0028   gamma=   14.85 GHz
     lambda(   18)=  0.0028   gamma=   14.85 GHz
     lambda(   19)=  0.0062   gamma=   33.67 GHz
     lambda(   20)=  0.0218   gamma=  168.98 GHz
     lambda(   21)=  0.0514   gamma=  437.17 GHz
     Gaussian Broadening:   0.020 Ry, ngauss=   0
     DOS =  2.290454 states/spin/Ry/Unit Cell at Ef= 17.145317 eV
     lambda(    1)=  0.3090   gamma=   15.71 GHz
     lambda(    2)=  0.3083   gamma=   15.67 GHz
     lambda(    3)=  0.1234   gamma=   31.31 GHz
     lambda(    4)=  0.0549   gamma=  120.69 GHz
     lambda(    5)=  0.0549   gamma=  120.80 GHz
     lambda(    6)=  0.8282   gamma= 2033.43 GHz
     lambda(    7)=  0.0472   gamma=  126.64 GHz
     lambda(    8)=  0.1765   gamma=  503.34 GHz
     lambda(    9)=  0.1754   gamma=  500.22 GHz
     lambda(   10)=  0.0247   gamma=   84.72 GHz
     lambda(   11)=  0.0450   gamma=  166.12 GHz
     lambda(   12)=  0.0446   gamma=  164.66 GHz
     lambda(   13)=  0.0018   gamma=    7.45 GHz
     lambda(   14)=  0.0018   gamma=    7.39 GHz
     lambda(   15)=  0.0027   gamma=   11.54 GHz
     lambda(   16)=  0.0026   gamma=   11.43 GHz
     lambda(   17)=  0.0026   gamma=   14.01 GHz
     lambda(   18)=  0.0025   gamma=   13.91 GHz
     lambda(   19)=  0.0052   gamma=   29.36 GHz
     lambda(   20)=  0.0190   gamma=  151.30 GHz
     lambda(   21)=  0.0413   gamma=  359.77 GHz
     Gaussian Broadening:   0.025 Ry, ngauss=   0
     DOS =  2.332190 states/spin/Ry/Unit Cell at Ef= 17.144758 eV
     lambda(    1)=  0.2814   gamma=   14.56 GHz
     lambda(    2)=  0.2806   gamma=   14.52 GHz
     lambda(    3)=  0.1111   gamma=   28.69 GHz
     lambda(    4)=  0.0501   gamma=  112.24 GHz
     lambda(    5)=  0.0502   gamma=  112.36 GHz
     lambda(    6)=  0.7472   gamma= 1867.96 GHz
     lambda(    7)=  0.0417   gamma=  114.11 GHz
     lambda(    8)=  0.1629   gamma=  473.06 GHz
     lambda(    9)=  0.1622   gamma=  470.93 GHz
     lambda(   10)=  0.0219   gamma=   76.47 GHz
     lambda(   11)=  0.0398   gamma=  149.78 GHz
     lambda(   12)=  0.0396   gamma=  148.68 GHz
     lambda(   13)=  0.0018   gamma=    7.55 GHz
     lambda(   14)=  0.0017   gamma=    7.44 GHz
     lambda(   15)=  0.0024   gamma=   10.63 GHz
     lambda(   16)=  0.0022   gamma=   10.08 GHz
     lambda(   17)=  0.0024   gamma=   13.23 GHz
     lambda(   18)=  0.0024   gamma=   13.07 GHz
     lambda(   19)=  0.0046   gamma=   26.47 GHz
     lambda(   20)=  0.0184   gamma=  149.20 GHz
     lambda(   21)=  0.0355   gamma=  315.45 GHz
     Gaussian Broadening:   0.030 Ry, ngauss=   0
     DOS =  2.360595 states/spin/Ry/Unit Cell at Ef= 17.144134 eV
     lambda(    1)=  0.2638   gamma=   13.82 GHz
     lambda(    2)=  0.2630   gamma=   13.78 GHz
     lambda(    3)=  0.1029   gamma=   26.91 GHz
     lambda(    4)=  0.0477   gamma=  108.13 GHz
     lambda(    5)=  0.0478   gamma=  108.26 GHz
     lambda(    6)=  0.6903   gamma= 1746.73 GHz
     lambda(    7)=  0.0390   gamma=  107.83 GHz
     lambda(    8)=  0.1550   gamma=  455.65 GHz
     lambda(    9)=  0.1546   gamma=  454.31 GHz
     lambda(   10)=  0.0205   gamma=   72.49 GHz
     lambda(   11)=  0.0363   gamma=  138.25 GHz
     lambda(   12)=  0.0361   gamma=  137.44 GHz
     lambda(   13)=  0.0019   gamma=    8.07 GHz
     lambda(   14)=  0.0018   gamma=    7.92 GHz
     lambda(   15)=  0.0023   gamma=   10.03 GHz
     lambda(   16)=  0.0020   gamma=    9.05 GHz
     lambda(   17)=  0.0023   gamma=   12.97 GHz
     lambda(   18)=  0.0023   gamma=   12.78 GHz
     lambda(   19)=  0.0044   gamma=   25.13 GHz
     lambda(   20)=  0.0188   gamma=  154.58 GHz
     lambda(   21)=  0.0329   gamma=  295.21 GHz
     Gaussian Broadening:   0.035 Ry, ngauss=   0
     DOS =  2.381114 states/spin/Ry/Unit Cell at Ef= 17.143351 eV
     lambda(    1)=  0.2558   gamma=   13.52 GHz
     lambda(    2)=  0.2550   gamma=   13.47 GHz
     lambda(    3)=  0.0980   gamma=   25.84 GHz
     lambda(    4)=  0.0473   gamma=  108.17 GHz
     lambda(    5)=  0.0474   gamma=  108.29 GHz
     lambda(    6)=  0.6481   gamma= 1654.34 GHz
     lambda(    7)=  0.0378   gamma=  105.51 GHz
     lambda(    8)=  0.1519   gamma=  450.52 GHz
     lambda(    9)=  0.1517   gamma=  449.81 GHz
     lambda(   10)=  0.0198   gamma=   70.56 GHz
     lambda(   11)=  0.0344   gamma=  131.84 GHz
     lambda(   12)=  0.0342   gamma=  131.25 GHz
     lambda(   13)=  0.0020   gamma=    8.92 GHz
     lambda(   14)=  0.0020   gamma=    8.74 GHz
     lambda(   15)=  0.0022   gamma=    9.74 GHz
     lambda(   16)=  0.0018   gamma=    8.39 GHz
     lambda(   17)=  0.0023   gamma=   13.14 GHz
     lambda(   18)=  0.0023   gamma=   12.93 GHz
     lambda(   19)=  0.0043   gamma=   24.85 GHz
     lambda(   20)=  0.0197   gamma=  163.30 GHz
     lambda(   21)=  0.0319   gamma=  289.52 GHz
     Gaussian Broadening:   0.040 Ry, ngauss=   0
     DOS =  2.398900 states/spin/Ry/Unit Cell at Ef= 17.142416 eV
     lambda(    1)=  0.2546   gamma=   13.56 GHz
     lambda(    2)=  0.2537   gamma=   13.51 GHz
     lambda(    3)=  0.0950   gamma=   25.23 GHz
     lambda(    4)=  0.0484   gamma=  111.53 GHz
     lambda(    5)=  0.0485   gamma=  111.67 GHz
     lambda(    6)=  0.6152   gamma= 1581.90 GHz
     lambda(    7)=  0.0376   gamma=  105.81 GHz
     lambda(    8)=  0.1522   gamma=  454.76 GHz
     lambda(    9)=  0.1522   gamma=  454.54 GHz
     lambda(   10)=  0.0194   gamma=   69.79 GHz
     lambda(   11)=  0.0334   gamma=  129.22 GHz
     lambda(   12)=  0.0333   gamma=  128.81 GHz
     lambda(   13)=  0.0023   gamma=   10.07 GHz
     lambda(   14)=  0.0022   gamma=    9.87 GHz
     lambda(   15)=  0.0022   gamma=    9.71 GHz
     lambda(   16)=  0.0017   gamma=    8.03 GHz
     lambda(   17)=  0.0024   gamma=   13.69 GHz
     lambda(   18)=  0.0024   gamma=   13.46 GHz
     lambda(   19)=  0.0043   gamma=   25.29 GHz
     lambda(   20)=  0.0208   gamma=  173.32 GHz
     lambda(   21)=  0.0321   gamma=  292.83 GHz
     Gaussian Broadening:   0.045 Ry, ngauss=   0
     DOS =  2.416850 states/spin/Ry/Unit Cell at Ef= 17.141341 eV
     lambda(    1)=  0.2577   gamma=   13.82 GHz
     lambda(    2)=  0.2568   gamma=   13.77 GHz
     lambda(    3)=  0.0930   gamma=   24.90 GHz
     lambda(    4)=  0.0507   gamma=  117.67 GHz
     lambda(    5)=  0.0508   gamma=  117.86 GHz
     lambda(    6)=  0.5878   gamma= 1522.88 GHz
     lambda(    7)=  0.0381   gamma=  108.04 GHz
     lambda(    8)=  0.1547   gamma=  465.65 GHz
     lambda(    9)=  0.1548   gamma=  465.80 GHz
     lambda(   10)=  0.0193   gamma=   69.85 GHz
     lambda(   11)=  0.0331   gamma=  129.04 GHz
     lambda(   12)=  0.0331   gamma=  128.77 GHz
     lambda(   13)=  0.0026   gamma=   11.52 GHz
     lambda(   14)=  0.0026   gamma=   11.29 GHz
     lambda(   15)=  0.0022   gamma=    9.91 GHz
     lambda(   16)=  0.0017   gamma=    7.85 GHz
     lambda(   17)=  0.0025   gamma=   14.59 GHz
     lambda(   18)=  0.0025   gamma=   14.34 GHz
     lambda(   19)=  0.0044   gamma=   26.20 GHz
     lambda(   20)=  0.0219   gamma=  183.69 GHz
     lambda(   21)=  0.0328   gamma=  301.82 GHz
     Gaussian Broadening:   0.050 Ry, ngauss=   0
     DOS =  2.436152 states/spin/Ry/Unit Cell at Ef= 17.140123 eV
     lambda(    1)=  0.2633   gamma=   14.23 GHz
     lambda(    2)=  0.2623   gamma=   14.18 GHz
     lambda(    3)=  0.0915   gamma=   24.68 GHz
     lambda(    4)=  0.0540   gamma=  126.23 GHz
     lambda(    5)=  0.0541   gamma=  126.49 GHz
     lambda(    6)=  0.5640   gamma= 1472.89 GHz
     lambda(    7)=  0.0391   gamma=  111.80 GHz
     lambda(    8)=  0.1586   gamma=  481.02 GHz
     lambda(    9)=  0.1587   gamma=  481.44 GHz
     lambda(   10)=  0.0193   gamma=   70.59 GHz
     lambda(   11)=  0.0332   gamma=  130.28 GHz
     lambda(   12)=  0.0331   gamma=  130.11 GHz
     lambda(   13)=  0.0030   gamma=   13.28 GHz
     lambda(   14)=  0.0029   gamma=   13.02 GHz
     lambda(   15)=  0.0023   gamma=   10.31 GHz
     lambda(   16)=  0.0017   gamma=    7.79 GHz
     lambda(   17)=  0.0027   gamma=   15.81 GHz
     lambda(   18)=  0.0027   gamma=   15.54 GHz
     lambda(   19)=  0.0046   gamma=   27.43 GHz
     lambda(   20)=  0.0229   gamma=  193.98 GHz
     lambda(   21)=  0.0339   gamma=  314.33 GHz
 
 
     Number of q in the star =    6
     List of q in the star:
          1   0.000000000   0.000000000   0.216506400
          2   0.216506400  -0.000000000   0.000000000
          3  -0.216506400  -0.000000000  -0.000000000
          4  -0.000000000   0.216506400   0.000000000
          5  -0.000000000  -0.216506400  -0.000000000
          6  -0.000000000  -0.000000000  -0.216506400
 
     init_run     :      0.07s CPU      0.24s WALL (       1 calls)
     electrons    :      9.11s CPU     10.01s WALL (       1 calls)

     Called by init_run:
     wfcinit      :      0.00s CPU      0.06s WALL (       1 calls)
     potinit      :      0.01s CPU      0.07s WALL (       1 calls)
     hinit0       :      0.03s CPU      0.03s WALL (       1 calls)

     Called by electrons:
     c_bands      :      9.10s CPU     10.00s WALL (       1 calls)
     v_of_rho     :      0.01s CPU      0.04s WALL (       2 calls)
     newd         :      0.01s CPU      0.02s WALL (       2 calls)

     Called by c_bands:
     init_us_2    :      0.69s CPU      0.76s WALL (   25596 calls)
     cegterg      :      4.75s CPU      5.14s WALL (     325 calls)

     Called by *egterg:
     cdiaghg      :      1.61s CPU      1.76s WALL (    4937 calls)
     h_psi        :    269.16s CPU    316.84s WALL (  330774 calls)
     s_psi        :      7.05s CPU      7.95s WALL (  683016 calls)
     g_psi        :      0.01s CPU      0.02s WALL (    4613 calls)

     Called by h_psi:
     h_psi:calbec :      6.20s CPU      6.93s WALL (  330774 calls)
     vloc_psi     :    256.77s CPU    302.97s WALL (  330774 calls)
     add_vuspsi   :      3.36s CPU      3.78s WALL (  330774 calls)

     General routines
     calbec       :     26.57s CPU     28.47s WALL (  729024 calls)
     fft          :      0.47s CPU      0.91s WALL (    3351 calls)
     ffts         :      0.42s CPU      0.49s WALL (    4091 calls)
     fftw         :    470.98s CPU    568.34s WALL ( 4891115 calls)
     interpolate  :      0.31s CPU      0.37s WALL (     353 calls)
     davcio       :      4.61s CPU    212.42s WALL (  130789 calls)
 
     Parallel routines
 
     PHONON       :  15m53.09s CPU  22m 2.17s WALL

     INITIALIZATION: 
     phq_setup    :      0.01s CPU      0.04s WALL (       1 calls)
     phq_init     :      7.06s CPU      7.93s WALL (       1 calls)
 
     phq_init     :      7.06s CPU      7.93s WALL (       1 calls)
     set_drhoc    :      0.04s CPU      0.04s WALL (       3 calls)
     init_vloc    :      0.00s CPU      0.01s WALL (       2 calls)
     init_us_1    :      0.05s CPU      0.12s WALL (       2 calls)
     newd         :      0.01s CPU      0.02s WALL (       2 calls)
     dvanqq       :      0.16s CPU      0.16s WALL (       1 calls)
     drho         :      4.78s CPU      5.27s WALL (       1 calls)
 
     DYNAMICAL MATRIX:
     dynmat0      :      1.23s CPU      1.47s WALL (       1 calls)
     phqscf       :    904.60s CPU   1266.78s WALL (       1 calls)
     dynmatrix    :      0.13s CPU      0.15s WALL (       1 calls)
 
     phqscf       :    904.60s CPU   1266.78s WALL (       1 calls)
     solve_linter :    890.91s CPU   1244.66s WALL (      15 calls)
     drhodv       :     13.67s CPU     19.22s WALL (      15 calls)
 
     dynmat0      :      1.23s CPU      1.47s WALL (       1 calls)
     dynmat_us    :      1.19s CPU      1.41s WALL (       1 calls)
     d2ionq       :      0.01s CPU      0.01s WALL (       1 calls)
     dynmatcc     :      0.03s CPU      0.03s WALL (       1 calls)
 
     dynmat_us    :      1.19s CPU      1.41s WALL (       1 calls)
     addusdynmat  :      0.00s CPU      0.00s WALL (       1 calls)
 
     phqscf       :    904.60s CPU   1266.78s WALL (       1 calls)
     solve_linter :    890.91s CPU   1244.66s WALL (      15 calls)
 
     solve_linter :    890.91s CPU   1244.66s WALL (      15 calls)
     dvqpsi_us    :      5.05s CPU      5.52s WALL (    3402 calls)
     ortho        :     21.02s CPU     21.92s WALL (   26730 calls)
     cgsolve      :    291.69s CPU    342.24s WALL (   26730 calls)
     incdrhoscf   :     89.24s CPU    109.87s WALL (   26730 calls)
     addusddens   :      1.66s CPU      2.38s WALL (     137 calls)
     vpsifft      :    138.77s CPU    171.05s WALL (   26730 calls)
     dv_of_drho   :      0.37s CPU      0.43s WALL (     165 calls)
     mix_pot      :     12.58s CPU     37.92s WALL (     122 calls)
     psymdvscf    :      7.73s CPU      8.06s WALL (     122 calls)
     newdq        :      1.72s CPU      1.74s WALL (     122 calls)
     adddvscf     :      0.87s CPU      0.99s WALL (   26730 calls)
     drhodvus     :      4.05s CPU      5.97s WALL (      15 calls)
 
     dvqpsi_us    :      5.05s CPU      5.52s WALL (    3402 calls)
     dvqpsi_us_on :      1.93s CPU      2.06s WALL (    3402 calls)
 
     cgsolve      :    291.69s CPU    342.24s WALL (   26730 calls)
     ch_psi       :    287.40s CPU    337.37s WALL (  325512 calls)
 
     ch_psi       :    287.40s CPU    337.37s WALL (  325512 calls)
     h_psi        :    269.16s CPU    316.84s WALL (  330774 calls)
     last         :     14.09s CPU     15.81s WALL (  325512 calls)
 
     h_psi        :    269.16s CPU    316.84s WALL (  330774 calls)
     add_vuspsi   :      3.36s CPU      3.78s WALL (  330774 calls)
 
     incdrhoscf   :     89.24s CPU    109.87s WALL (   26730 calls)
     addusdbec    :      0.89s CPU      0.99s WALL (   30132 calls)
 
     drhodvus     :      4.05s CPU      5.97s WALL (      15 calls)
 
      Electron-phonon coupling
     elphel       :     33.42s CPU     48.54s WALL (      15 calls)
     elphsum      :     31.10s CPU     31.48s WALL (       1 calls)
 
      General routines
     calbec       :     26.57s CPU     28.47s WALL (  729024 calls)
     fft          :      0.47s CPU      0.91s WALL (    3351 calls)
     ffts         :      0.42s CPU      0.49s WALL (    4091 calls)
     fftw         :    470.98s CPU    568.34s WALL ( 4891115 calls)
     davcio       :      4.61s CPU    212.42s WALL (  130789 calls)
     write_rec    :      0.10s CPU     17.93s WALL (     137 calls)
 
 
     PHONON       :  15m53.09s CPU  22m 2.17s WALL

 
   This run was terminated on:  18:59:10  21Jul2022            

=------------------------------------------------------------------------------=
   JOB DONE.
=------------------------------------------------------------------------------=
