
     Program PHONON v.6.8 starts on 31Jul2022 at  6:40: 6 

     This program is part of the open-source Quantum ESPRESSO suite
     for quantum simulation of materials; please cite
         "P. Giannozzi et al., J. Phys.:Condens. Matter 21 395502 (2009);
         "P. Giannozzi et al., J. Phys.:Condens. Matter 29 465901 (2017);
         "P. Giannozzi et al., J. Chem. Phys. 152 154105 (2020);
          URL http://www.quantum-espresso.org", 
     in publications or presentations arising from this work. More details at
     http://www.quantum-espresso.org/quote

     Parallel version (MPI), running on    48 processors

     MPI processes distributed on     1 nodes
     K-points division:     npool     =       4
     R & G space division:  proc/nbgrp/npool/nimage =      12
     188924 MiB available memory on the printing compute node when the environment starts
 
     Waiting for input...
     Reading input from standard input

     Reading xml data from directory:

     ./tmp/Ca1H6.save/

     IMPORTANT: XC functional enforced from input :
     Exchange-correlation= PBE
                           (   1   4   3   4   0   0   0)
     Any further DFT definition will be discarded
     Please, verify this is what you really want

 
     Parallelization info
     --------------------
     sticks:   dense  smooth     PW     G-vecs:    dense   smooth      PW
     Min         139      46     17                 3602      698     155
     Max         140      47     18                 3604      701     157
     Sum        1669     557    205                43227     8391    1865
 
     Using Slab Decomposition
 
     Reading collected, re-writing distributed wavefunctions


     Dynamical matrices for ( 8, 8, 8)  uniform grid of q-points
     (  29 q-points):
       N         xq(1)         xq(2)         xq(3) 
       1   0.000000000   0.000000000   0.000000000
       2   0.108253175   0.108253175   0.000000000
       3   0.216506351   0.216506351   0.000000000
       4   0.324759526   0.324759526   0.000000000
       5  -0.433012702  -0.433012702   0.000000000
       6   0.216506351   0.108253175   0.108253175
       7   0.324759526   0.216506351   0.108253175
       8   0.433012702   0.324759526   0.108253175
       9   0.433012702   0.216506351   0.216506351
      10   0.541265877   0.324759526   0.216506351
      11   0.216506351   0.216506351   0.216506351
      12   0.324759526   0.324759526   0.216506351
      13   0.433012702   0.433012702   0.216506351
      14  -0.000000000  -0.000000000   0.216506351
      15   0.433012702   0.324759526   0.324759526
      16  -0.000000000  -0.108253175   0.324759526
      17  -0.000000000  -0.216506351   0.433012702
      18   0.108253175  -0.108253175   0.433012702
      19  -0.866025404  -0.324759526  -0.324759526
      20  -0.757772228  -0.216506351  -0.324759526
      21  -0.649519053  -0.216506351  -0.216506351
      22   0.433012702   0.433012702   0.433012702
      23  -0.000000000  -0.000000000   0.433012702
      24  -0.000000000  -0.108253175   0.541265877
      25  -0.866025404  -0.216506351  -0.216506351
      26  -0.757772228  -0.108253175  -0.216506351
      27  -0.000000000  -0.000000000   0.649519053
      28  -0.866025404  -0.108253175  -0.108253175
      29  -0.866025404  -0.866025404  -0.866025404

     Saving dvscf to file. Distribute only q points, not irreducible represetations.

     Calculation of q =    0.4330127   0.2165064   0.2165064

     Subspace diagonalization in iterative solution of the eigenvalue problem:
     a serial algorithm will be used

 
     Parallelization info
     --------------------
     sticks:   dense  smooth     PW     G-vecs:    dense   smooth      PW
     Min         139      46     17                 3602      698     155
     Max         140      47     18                 3604      701     157
     Sum        1669     557    205                43227     8391    1865
 
     Using Slab Decomposition
 

     Title: 
     Electron-phonon coefficients for Ca1H6                                     


     bravais-lattice index     =            0
     lattice parameter (alat)  =       5.5613  a.u.
     unit-cell volume          =     132.4087 (a.u.)^3
     number of atoms/cell      =            7
     number of atomic types    =            2
     number of electrons       =        16.00
     number of Kohn-Sham states=           12
     kinetic-energy cutoff     =      60.0000  Ry
     charge density cutoff     =     720.0000  Ry
     Exchange-correlation= PBE
                           (   1   4   3   4   0   0   0)

     celldm(1)=   5.561340  celldm(2)=   0.000000  celldm(3)=   0.000000
     celldm(4)=   0.000000  celldm(5)=   0.000000  celldm(6)=   0.000000

     crystal axes: (cart. coord. in units of alat)
               a(1) = (  -0.577350   0.577350   0.577350 )  
               a(2) = (   0.577350  -0.577350   0.577350 )  
               a(3) = (   0.577350   0.577350  -0.577350 )  

     reciprocal axes: (cart. coord. in units 2 pi/alat)
               b(1) = ( -0.000000  0.866025  0.866025 )  
               b(2) = (  0.866025 -0.000000  0.866025 )  
               b(3) = (  0.866025  0.866025  0.000000 )  


     PseudoPot. # 1 for Ca read from file:
     /work/home/mayuan/code/my_script/scripts_tests/out2/200.0/pp/ca_pbe_v1.uspp.F.UPF
     MD5 check sum: 403a4c14b9e4d4dfdc3024c9a3812218
     Pseudo is Ultrasoft + core correction, Zval = 10.0
     Generated by new atomic code, or converted to UPF format
     Using radial grid of  845 points,  6 beta functions with: 
                l(1) =   0
                l(2) =   0
                l(3) =   1
                l(4) =   1
                l(5) =   2
                l(6) =   2
     Q(r) pseudized with  8 coefficients,  rinner =    1.500   1.500   1.500
                                                       1.500   1.500

     PseudoPot. # 2 for H  read from file:
     /work/home/mayuan/code/my_script/scripts_tests/out2/200.0/pp/h_pbe_v1.uspp.F.UPF
     MD5 check sum: 3408e3ff4ec8b0a4e358431e7e038a48
     Pseudo is Ultrasoft, Zval =  1.0
     Generated by new atomic code, or converted to UPF format
     Using radial grid of  615 points,  2 beta functions with: 
                l(1) =   0
                l(2) =   0
     Q(r) pseudized with  8 coefficients,  rinner =    0.700

     atomic species   valence    mass     pseudopotential
        Ca            10.00    40.07800     Ca( 1.00)
        H              1.00     1.00794     H ( 1.00)

     48 Sym. Ops., with inversion, found



   Cartesian axes

     site n.     atom                  positions (alat units)
         1           Ca  tau(   1) = (   0.0000000   0.0000000   0.0000000  )
         2           H   tau(   2) = (   0.2886751   0.0000000   0.5773503  )
         3           H   tau(   3) = (   0.2886751   0.5773503   0.0000000  )
         4           H   tau(   4) = (   0.5773503   0.2886751   0.0000000  )
         5           H   tau(   5) = (   0.0000000   0.2886751   0.5773503  )
         6           H   tau(   6) = (   0.0000000   0.5773503   0.2886751  )
         7           H   tau(   7) = (   0.5773503   0.0000000   0.2886751  )

     number of k points=  4352  Methfessel-Paxton smearing, width (Ry)=  0.0200

     Number of k-points >= 100: set verbosity='high' to print them.

     Dense  grid:    43227 G-vectors     FFT dimensions: (  48,  48,  48)

     Smooth grid:     8391 G-vectors     FFT dimensions: (  27,  27,  27)

     Estimated max dynamical RAM per process >       8.36 MB

     Estimated total dynamical RAM >     401.10 MB

     The potential is recalculated from file :
     ./tmp/_ph0/Ca1H6.q_9/Ca1H6.save/charge-density

     Starting wfcs are   16 atomic wfcs

     Band Structure Calculation
     Davidson diagonalization with overlap

     ethr =  6.25E-11,  avg # of iterations = 15.0

     total cpu time spent up to now is       89.4 secs

     End of band structure calculation

     Number of k-points >= 100: set verbosity='high' to print the bands.

     the Fermi energy is    17.0980 ev

     Writing output data file ./tmp/_ph0/Ca1H6.q_9/Ca1H6.save/

     Electron-phonon coefficients for Ca1H6                                     

     bravais-lattice index     =            0
     lattice parameter (alat)  =       5.5613  a.u.
     unit-cell volume          =     132.4087 (a.u.)^3
     number of atoms/cell      =            7
     number of atomic types    =            2
     kinetic-energy cut-off    =      60.0000  Ry
     charge density cut-off    =     720.0000  Ry
     convergence threshold     =      1.0E-16
     beta                      =       0.7000
     number of iterations used =            4
     Exchange-correlation= PBE
                           (   1   4   3   4   0   0   0)


     celldm(1)=    5.56134  celldm(2)=    0.00000  celldm(3)=    0.00000
     celldm(4)=    0.00000  celldm(5)=    0.00000  celldm(6)=    0.00000

     crystal axes: (cart. coord. in units of alat)
               a(1) = ( -0.5774  0.5774  0.5774 )  
               a(2) = (  0.5774 -0.5774  0.5774 )  
               a(3) = (  0.5774  0.5774 -0.5774 )  

     reciprocal axes: (cart. coord. in units 2 pi/alat)
               b(1) = ( -0.0000  0.8660  0.8660 )  
               b(2) = (  0.8660 -0.0000  0.8660 )  
               b(3) = (  0.8660  0.8660  0.0000 )  


     Atoms inside the unit cell: 

     Cartesian axes

     site n.  atom      mass           positions (alat units)
        1     Ca  40.0780   tau(    1) = (    0.00000    0.00000    0.00000  )
        2     H    1.0079   tau(    2) = (    0.28868    0.00000    0.57735  )
        3     H    1.0079   tau(    3) = (    0.28868    0.57735    0.00000  )
        4     H    1.0079   tau(    4) = (    0.57735    0.28868    0.00000  )
        5     H    1.0079   tau(    5) = (    0.00000    0.28868    0.57735  )
        6     H    1.0079   tau(    6) = (    0.00000    0.57735    0.28868  )
        7     H    1.0079   tau(    7) = (    0.57735    0.00000    0.28868  )

     Computing dynamical matrix for 
                    q = (   0.4330127   0.2165064   0.2165064 )
 
      2 Sym.Ops. (no q -> -q+G )


     G cutoff =  564.0682  (   3604 G-vectors)     FFT grid: ( 48, 48, 48)
     G cutoff =  188.0227  (    699 G-vectors)  smooth grid: ( 27, 27, 27)

     number of k points=  4352  Methfessel-Paxton smearing, width (Ry)=  0.0200

     PseudoPot. # 1 for Ca read from file:
     /work/home/mayuan/code/my_script/scripts_tests/out2/200.0/pp/ca_pbe_v1.uspp.F.UPF
     MD5 check sum: 403a4c14b9e4d4dfdc3024c9a3812218
     Pseudo is Ultrasoft + core correction, Zval = 10.0
     Generated by new atomic code, or converted to UPF format
     Using radial grid of  845 points,  6 beta functions with: 
                l(1) =   0
                l(2) =   0
                l(3) =   1
                l(4) =   1
                l(5) =   2
                l(6) =   2
     Q(r) pseudized with  8 coefficients,  rinner =    1.500   1.500   1.500
                                                       1.500   1.500

     PseudoPot. # 2 for H  read from file:
     /work/home/mayuan/code/my_script/scripts_tests/out2/200.0/pp/h_pbe_v1.uspp.F.UPF
     MD5 check sum: 3408e3ff4ec8b0a4e358431e7e038a48
     Pseudo is Ultrasoft, Zval =  1.0
     Generated by new atomic code, or converted to UPF format
     Using radial grid of  615 points,  2 beta functions with: 
                l(1) =   0
                l(2) =   0
     Q(r) pseudized with  8 coefficients,  rinner =    0.700

     Mode symmetry, C_s (m)     point group:


     Atomic displacements:
     There are   21 irreducible representations

     Representation     1      1 modes -  To be done

     Representation     2      1 modes -  To be done

     Representation     3      1 modes -  To be done

     Representation     4      1 modes -  To be done

     Representation     5      1 modes -  To be done

     Representation     6      1 modes -  To be done

     Representation     7      1 modes -  To be done

     Representation     8      1 modes -  To be done

     Representation     9      1 modes -  To be done

     Representation    10      1 modes -  To be done

     Representation    11      1 modes -  To be done

     Representation    12      1 modes -  To be done

     Representation    13      1 modes -  To be done

     Representation    14      1 modes -  To be done

     Representation    15      1 modes -  To be done

     Representation    16      1 modes -  To be done

     Representation    17      1 modes -  To be done

     Representation    18      1 modes -  To be done

     Representation    19      1 modes -  To be done

     Representation    20      1 modes -  To be done

     Representation    21      1 modes -  To be done



     Alpha used in Ewald sum =   2.8000
     PHONON       :   1m37.92s CPU   1m56.05s WALL



     Representation #   1 mode #   1

     Self-consistent Calculation

      iter #   1 total cpu time :   125.6 secs   av.it.:   4.1
      thresh= 1.000E-02 alpha_mix =  0.700 |ddv_scf|^2 =  5.471E-06

      iter #   2 total cpu time :   141.2 secs   av.it.:   9.3
      thresh= 2.339E-04 alpha_mix =  0.700 |ddv_scf|^2 =  2.603E-05

      iter #   3 total cpu time :   154.5 secs   av.it.:   8.1
      thresh= 5.102E-04 alpha_mix =  0.700 |ddv_scf|^2 =  4.783E-09

      iter #   4 total cpu time :   169.2 secs   av.it.:   9.7
      thresh= 6.916E-06 alpha_mix =  0.700 |ddv_scf|^2 =  8.375E-10

      iter #   5 total cpu time :   183.4 secs   av.it.:   9.3
      thresh= 2.894E-06 alpha_mix =  0.700 |ddv_scf|^2 =  1.422E-11

      iter #   6 total cpu time :   198.6 secs   av.it.:   9.8
      thresh= 3.771E-07 alpha_mix =  0.700 |ddv_scf|^2 =  1.268E-12

      iter #   7 total cpu time :   221.2 secs   av.it.:   9.5
      thresh= 1.126E-07 alpha_mix =  0.700 |ddv_scf|^2 =  2.439E-14

      iter #   8 total cpu time :   239.5 secs   av.it.:   9.7
      thresh= 1.562E-08 alpha_mix =  0.700 |ddv_scf|^2 =  1.781E-14

      iter #   9 total cpu time :   257.1 secs   av.it.:   8.7
      thresh= 1.334E-08 alpha_mix =  0.700 |ddv_scf|^2 =  3.547E-15

      iter #  10 total cpu time :   276.6 secs   av.it.:   8.9
      thresh= 5.955E-09 alpha_mix =  0.700 |ddv_scf|^2 =  3.751E-16

      iter #  11 total cpu time :   296.3 secs   av.it.:   8.8
      thresh= 1.937E-09 alpha_mix =  0.700 |ddv_scf|^2 =  1.173E-16

      iter #  12 total cpu time :   314.6 secs   av.it.:   8.9
      thresh= 1.083E-09 alpha_mix =  0.700 |ddv_scf|^2 =  2.085E-18

     End of self-consistent calculation

     Convergence has been achieved 


     Representation #   2 mode #   2

     Self-consistent Calculation

      iter #   1 total cpu time :   327.9 secs   av.it.:   4.2
      thresh= 1.000E-02 alpha_mix =  0.700 |ddv_scf|^2 =  2.192E-06

      iter #   2 total cpu time :   340.0 secs   av.it.:   9.4
      thresh= 1.480E-04 alpha_mix =  0.700 |ddv_scf|^2 =  9.417E-06

      iter #   3 total cpu time :   359.9 secs   av.it.:   8.1
      thresh= 3.069E-04 alpha_mix =  0.700 |ddv_scf|^2 =  2.405E-08

      iter #   4 total cpu time :   378.7 secs   av.it.:   9.3
      thresh= 1.551E-05 alpha_mix =  0.700 |ddv_scf|^2 =  1.047E-09

      iter #   5 total cpu time :   397.2 secs   av.it.:   9.5
      thresh= 3.235E-06 alpha_mix =  0.700 |ddv_scf|^2 =  2.554E-11

      iter #   6 total cpu time :   411.3 secs   av.it.:   9.7
      thresh= 5.054E-07 alpha_mix =  0.700 |ddv_scf|^2 =  1.476E-12

      iter #   7 total cpu time :   431.3 secs   av.it.:   9.6
      thresh= 1.215E-07 alpha_mix =  0.700 |ddv_scf|^2 =  3.207E-14

      iter #   8 total cpu time :   445.7 secs   av.it.:   9.8
      thresh= 1.791E-08 alpha_mix =  0.700 |ddv_scf|^2 =  1.393E-14

      iter #   9 total cpu time :   468.5 secs   av.it.:   9.2
      thresh= 1.180E-08 alpha_mix =  0.700 |ddv_scf|^2 =  1.092E-14

      iter #  10 total cpu time :   483.8 secs   av.it.:   8.6
      thresh= 1.045E-08 alpha_mix =  0.700 |ddv_scf|^2 =  9.012E-17

     End of self-consistent calculation

     Convergence has been achieved 


     Representation #   3 mode #   3

     Self-consistent Calculation

      iter #   1 total cpu time :   503.3 secs   av.it.:   4.2
      thresh= 1.000E-02 alpha_mix =  0.700 |ddv_scf|^2 =  2.529E-06

      iter #   2 total cpu time :   519.5 secs   av.it.:   9.4
      thresh= 1.590E-04 alpha_mix =  0.700 |ddv_scf|^2 =  1.097E-05

      iter #   3 total cpu time :   536.1 secs   av.it.:   8.1
      thresh= 3.313E-04 alpha_mix =  0.700 |ddv_scf|^2 =  2.206E-08

      iter #   4 total cpu time :   553.9 secs   av.it.:   9.5
      thresh= 1.485E-05 alpha_mix =  0.700 |ddv_scf|^2 =  9.454E-10

      iter #   5 total cpu time :   571.5 secs   av.it.:   9.5
      thresh= 3.075E-06 alpha_mix =  0.700 |ddv_scf|^2 =  6.510E-11

      iter #   6 total cpu time :   594.8 secs   av.it.:   9.7
      thresh= 8.068E-07 alpha_mix =  0.700 |ddv_scf|^2 =  1.327E-12

      iter #   7 total cpu time :   609.1 secs   av.it.:   9.6
      thresh= 1.152E-07 alpha_mix =  0.700 |ddv_scf|^2 =  4.401E-14

      iter #   8 total cpu time :   630.9 secs   av.it.:   9.9
      thresh= 2.098E-08 alpha_mix =  0.700 |ddv_scf|^2 =  7.539E-15

      iter #   9 total cpu time :   651.8 secs   av.it.:   9.7
      thresh= 8.683E-09 alpha_mix =  0.700 |ddv_scf|^2 =  1.973E-14

      iter #  10 total cpu time :   669.6 secs   av.it.:   8.2
      thresh= 1.405E-08 alpha_mix =  0.700 |ddv_scf|^2 =  2.257E-16

      iter #  11 total cpu time :   688.9 secs   av.it.:   9.2
      thresh= 1.502E-09 alpha_mix =  0.700 |ddv_scf|^2 =  1.826E-16

      iter #  12 total cpu time :   707.8 secs   av.it.:   8.6
      thresh= 1.351E-09 alpha_mix =  0.700 |ddv_scf|^2 =  1.892E-18

     End of self-consistent calculation

     Convergence has been achieved 


     Representation #   4 mode #   4

     Self-consistent Calculation

      iter #   1 total cpu time :   724.5 secs   av.it.:   7.0
      thresh= 1.000E-02 alpha_mix =  0.700 |ddv_scf|^2 =  3.090E-04

      iter #   2 total cpu time :   741.5 secs   av.it.:   9.4
      thresh= 1.758E-03 alpha_mix =  0.700 |ddv_scf|^2 =  1.441E-03

      iter #   3 total cpu time :   755.3 secs   av.it.:   8.1
      thresh= 3.797E-03 alpha_mix =  0.700 |ddv_scf|^2 =  2.364E-06

      iter #   4 total cpu time :   775.6 secs   av.it.:   9.2
      thresh= 1.538E-04 alpha_mix =  0.700 |ddv_scf|^2 =  2.689E-08

      iter #   5 total cpu time :   791.8 secs   av.it.:   9.6
      thresh= 1.640E-05 alpha_mix =  0.700 |ddv_scf|^2 =  1.584E-09

      iter #   6 total cpu time :   812.3 secs   av.it.:   9.2
      thresh= 3.980E-06 alpha_mix =  0.700 |ddv_scf|^2 =  8.911E-11

      iter #   7 total cpu time :   824.5 secs   av.it.:   9.2
      thresh= 9.440E-07 alpha_mix =  0.700 |ddv_scf|^2 =  1.822E-12

      iter #   8 total cpu time :   843.9 secs   av.it.:   9.8
      thresh= 1.350E-07 alpha_mix =  0.700 |ddv_scf|^2 =  2.450E-13

      iter #   9 total cpu time :   858.9 secs   av.it.:   9.1
      thresh= 4.950E-08 alpha_mix =  0.700 |ddv_scf|^2 =  4.847E-14

      iter #  10 total cpu time :   880.9 secs   av.it.:   8.7
      thresh= 2.201E-08 alpha_mix =  0.700 |ddv_scf|^2 =  3.260E-15

      iter #  11 total cpu time :   897.4 secs   av.it.:   9.1
      thresh= 5.710E-09 alpha_mix =  0.700 |ddv_scf|^2 =  2.393E-15

      iter #  12 total cpu time :   916.2 secs   av.it.:   8.7
      thresh= 4.892E-09 alpha_mix =  0.700 |ddv_scf|^2 =  3.410E-17

     End of self-consistent calculation

     Convergence has been achieved 


     Representation #   5 mode #   5

     Self-consistent Calculation

      iter #   1 total cpu time :   930.4 secs   av.it.:   4.0
      thresh= 1.000E-02 alpha_mix =  0.700 |ddv_scf|^2 =  4.922E-07

      iter #   2 total cpu time :   946.0 secs   av.it.:   9.7
      thresh= 7.016E-05 alpha_mix =  0.700 |ddv_scf|^2 =  6.234E-07

      iter #   3 total cpu time :   960.7 secs   av.it.:   8.9
      thresh= 7.896E-05 alpha_mix =  0.700 |ddv_scf|^2 =  1.043E-07

      iter #   4 total cpu time :   975.1 secs   av.it.:   8.6
      thresh= 3.230E-05 alpha_mix =  0.700 |ddv_scf|^2 =  9.678E-10

      iter #   5 total cpu time :   997.8 secs   av.it.:   9.5
      thresh= 3.111E-06 alpha_mix =  0.700 |ddv_scf|^2 =  4.349E-11

      iter #   6 total cpu time :  1013.2 secs   av.it.:   9.5
      thresh= 6.595E-07 alpha_mix =  0.700 |ddv_scf|^2 =  7.769E-13

      iter #   7 total cpu time :  1032.4 secs   av.it.:   9.5
      thresh= 8.814E-08 alpha_mix =  0.700 |ddv_scf|^2 =  6.178E-14

      iter #   8 total cpu time :  1052.7 secs   av.it.:   9.7
      thresh= 2.486E-08 alpha_mix =  0.700 |ddv_scf|^2 =  7.751E-14

      iter #   9 total cpu time :  1075.0 secs   av.it.:   8.5
      thresh= 2.784E-08 alpha_mix =  0.700 |ddv_scf|^2 =  1.126E-14

      iter #  10 total cpu time :  1101.2 secs   av.it.:   8.8
      thresh= 1.061E-08 alpha_mix =  0.700 |ddv_scf|^2 =  1.361E-15

      iter #  11 total cpu time :  1116.9 secs   av.it.:   8.7
      thresh= 3.689E-09 alpha_mix =  0.700 |ddv_scf|^2 =  2.137E-16

      iter #  12 total cpu time :  1137.6 secs   av.it.:   9.1
      thresh= 1.462E-09 alpha_mix =  0.700 |ddv_scf|^2 =  4.791E-18

     End of self-consistent calculation

     Convergence has been achieved 


     Representation #   6 mode #   6

     Self-consistent Calculation

      iter #   1 total cpu time :  1153.1 secs   av.it.:   4.2
      thresh= 1.000E-02 alpha_mix =  0.700 |ddv_scf|^2 =  2.290E-06

      iter #   2 total cpu time :  1170.6 secs   av.it.:   9.5
      thresh= 1.513E-04 alpha_mix =  0.700 |ddv_scf|^2 =  9.951E-06

      iter #   3 total cpu time :  1188.1 secs   av.it.:   8.2
      thresh= 3.154E-04 alpha_mix =  0.700 |ddv_scf|^2 =  2.639E-08

      iter #   4 total cpu time :  1207.2 secs   av.it.:   9.4
      thresh= 1.625E-05 alpha_mix =  0.700 |ddv_scf|^2 =  1.123E-09

      iter #   5 total cpu time :  1230.9 secs   av.it.:   9.5
      thresh= 3.351E-06 alpha_mix =  0.700 |ddv_scf|^2 =  3.128E-11

      iter #   6 total cpu time :  1248.8 secs   av.it.:   9.7
      thresh= 5.593E-07 alpha_mix =  0.700 |ddv_scf|^2 =  1.638E-12

      iter #   7 total cpu time :  1272.7 secs   av.it.:   9.6
      thresh= 1.280E-07 alpha_mix =  0.700 |ddv_scf|^2 =  5.334E-14

      iter #   8 total cpu time :  1288.5 secs   av.it.:   9.8
      thresh= 2.309E-08 alpha_mix =  0.700 |ddv_scf|^2 =  1.195E-13

      iter #   9 total cpu time :  1310.6 secs   av.it.:   8.5
      thresh= 3.457E-08 alpha_mix =  0.700 |ddv_scf|^2 =  1.701E-14

      iter #  10 total cpu time :  1326.2 secs   av.it.:   8.7
      thresh= 1.304E-08 alpha_mix =  0.700 |ddv_scf|^2 =  3.532E-15

      iter #  11 total cpu time :  1350.1 secs   av.it.:   8.9
      thresh= 5.943E-09 alpha_mix =  0.700 |ddv_scf|^2 =  5.942E-17

     End of self-consistent calculation

     Convergence has been achieved 


     Representation #   7 mode #   7

     Self-consistent Calculation

      iter #   1 total cpu time :  1364.3 secs   av.it.:   4.1
      thresh= 1.000E-02 alpha_mix =  0.700 |ddv_scf|^2 =  6.632E-07

      iter #   2 total cpu time :  1383.5 secs   av.it.:   9.5
      thresh= 8.144E-05 alpha_mix =  0.700 |ddv_scf|^2 =  2.478E-06

      iter #   3 total cpu time :  1399.1 secs   av.it.:   8.2
      thresh= 1.574E-04 alpha_mix =  0.700 |ddv_scf|^2 =  2.807E-08

      iter #   4 total cpu time :  1421.6 secs   av.it.:   9.0
      thresh= 1.675E-05 alpha_mix =  0.700 |ddv_scf|^2 =  8.591E-10

      iter #   5 total cpu time :  1440.1 secs   av.it.:   9.5
      thresh= 2.931E-06 alpha_mix =  0.700 |ddv_scf|^2 =  2.300E-11

      iter #   6 total cpu time :  1458.8 secs   av.it.:   9.7
      thresh= 4.796E-07 alpha_mix =  0.700 |ddv_scf|^2 =  1.062E-12

      iter #   7 total cpu time :  1475.9 secs   av.it.:   9.6
      thresh= 1.031E-07 alpha_mix =  0.700 |ddv_scf|^2 =  3.160E-14

      iter #   8 total cpu time :  1493.6 secs   av.it.:   9.8
      thresh= 1.778E-08 alpha_mix =  0.700 |ddv_scf|^2 =  5.864E-15

      iter #   9 total cpu time :  1514.4 secs   av.it.:   9.6
      thresh= 7.658E-09 alpha_mix =  0.700 |ddv_scf|^2 =  7.488E-15

      iter #  10 total cpu time :  1531.3 secs   av.it.:   8.4
      thresh= 8.653E-09 alpha_mix =  0.700 |ddv_scf|^2 =  3.588E-16

      iter #  11 total cpu time :  1552.9 secs   av.it.:   8.9
      thresh= 1.894E-09 alpha_mix =  0.700 |ddv_scf|^2 =  1.198E-16

      iter #  12 total cpu time :  1573.2 secs   av.it.:   8.8
      thresh= 1.094E-09 alpha_mix =  0.700 |ddv_scf|^2 =  1.546E-18

     End of self-consistent calculation

     Convergence has been achieved 


     Representation #   8 mode #   8

     Self-consistent Calculation

      iter #   1 total cpu time :  1590.5 secs   av.it.:   4.0
      thresh= 1.000E-02 alpha_mix =  0.700 |ddv_scf|^2 =  1.115E-06

      iter #   2 total cpu time :  1604.9 secs   av.it.:   9.5
      thresh= 1.056E-04 alpha_mix =  0.700 |ddv_scf|^2 =  3.914E-06

      iter #   3 total cpu time :  1626.9 secs   av.it.:   8.3
      thresh= 1.978E-04 alpha_mix =  0.700 |ddv_scf|^2 =  5.092E-08

      iter #   4 total cpu time :  1641.9 secs   av.it.:   9.0
      thresh= 2.256E-05 alpha_mix =  0.700 |ddv_scf|^2 =  9.883E-10

      iter #   5 total cpu time :  1659.8 secs   av.it.:   9.3
      thresh= 3.144E-06 alpha_mix =  0.700 |ddv_scf|^2 =  4.151E-11

      iter #   6 total cpu time :  1672.3 secs   av.it.:   9.4
      thresh= 6.443E-07 alpha_mix =  0.700 |ddv_scf|^2 =  1.928E-12

      iter #   7 total cpu time :  1692.8 secs   av.it.:   9.5
      thresh= 1.389E-07 alpha_mix =  0.700 |ddv_scf|^2 =  4.306E-14

      iter #   8 total cpu time :  1710.0 secs   av.it.:   9.7
      thresh= 2.075E-08 alpha_mix =  0.700 |ddv_scf|^2 =  1.033E-14

      iter #   9 total cpu time :  1733.9 secs   av.it.:   9.4
      thresh= 1.016E-08 alpha_mix =  0.700 |ddv_scf|^2 =  2.207E-14

      iter #  10 total cpu time :  1754.4 secs   av.it.:   8.3
      thresh= 1.486E-08 alpha_mix =  0.700 |ddv_scf|^2 =  7.199E-16

      iter #  11 total cpu time :  1788.9 secs   av.it.:   9.0
      thresh= 2.683E-09 alpha_mix =  0.700 |ddv_scf|^2 =  7.936E-17

     End of self-consistent calculation

     Convergence has been achieved 


     Representation #   9 mode #   9

     Self-consistent Calculation

      iter #   1 total cpu time :  1822.6 secs   av.it.:   6.6
      thresh= 1.000E-02 alpha_mix =  0.700 |ddv_scf|^2 =  4.963E-05

      iter #   2 total cpu time :  1842.4 secs   av.it.:   9.6
      thresh= 7.045E-04 alpha_mix =  0.700 |ddv_scf|^2 =  1.851E-04

      iter #   3 total cpu time :  1861.7 secs   av.it.:   8.2
      thresh= 1.361E-03 alpha_mix =  0.700 |ddv_scf|^2 =  1.671E-06

      iter #   4 total cpu time :  1876.4 secs   av.it.:   9.2
      thresh= 1.293E-04 alpha_mix =  0.700 |ddv_scf|^2 =  2.810E-08

      iter #   5 total cpu time :  1892.9 secs   av.it.:   9.4
      thresh= 1.676E-05 alpha_mix =  0.700 |ddv_scf|^2 =  1.261E-09

      iter #   6 total cpu time :  1910.6 secs   av.it.:   9.4
      thresh= 3.551E-06 alpha_mix =  0.700 |ddv_scf|^2 =  4.619E-11

      iter #   7 total cpu time :  1930.9 secs   av.it.:   9.7
      thresh= 6.796E-07 alpha_mix =  0.700 |ddv_scf|^2 =  3.617E-12

      iter #   8 total cpu time :  1954.5 secs   av.it.:   9.8
      thresh= 1.902E-07 alpha_mix =  0.700 |ddv_scf|^2 =  3.678E-13

      iter #   9 total cpu time :  1971.1 secs   av.it.:   9.2
      thresh= 6.065E-08 alpha_mix =  0.700 |ddv_scf|^2 =  2.007E-13

      iter #  10 total cpu time :  1987.3 secs   av.it.:   8.6
      thresh= 4.480E-08 alpha_mix =  0.700 |ddv_scf|^2 =  6.313E-15

      iter #  11 total cpu time :  2007.2 secs   av.it.:   9.1
      thresh= 7.945E-09 alpha_mix =  0.700 |ddv_scf|^2 =  3.556E-15

      iter #  12 total cpu time :  2029.1 secs   av.it.:   8.7
      thresh= 5.963E-09 alpha_mix =  0.700 |ddv_scf|^2 =  1.240E-16

      iter #  13 total cpu time :  2050.0 secs   av.it.:   9.5
      thresh= 1.114E-09 alpha_mix =  0.700 |ddv_scf|^2 =  4.568E-18

     End of self-consistent calculation

     Convergence has been achieved 


     Representation #  10 mode #  10

     Self-consistent Calculation

      iter #   1 total cpu time :  2069.2 secs   av.it.:   4.3
      thresh= 1.000E-02 alpha_mix =  0.700 |ddv_scf|^2 =  3.582E-06

      iter #   2 total cpu time :  2089.5 secs   av.it.:   9.4
      thresh= 1.893E-04 alpha_mix =  0.700 |ddv_scf|^2 =  1.501E-05

      iter #   3 total cpu time :  2104.9 secs   av.it.:   8.2
      thresh= 3.875E-04 alpha_mix =  0.700 |ddv_scf|^2 =  6.089E-08

      iter #   4 total cpu time :  2124.3 secs   av.it.:   9.1
      thresh= 2.468E-05 alpha_mix =  0.700 |ddv_scf|^2 =  8.752E-10

      iter #   5 total cpu time :  2140.1 secs   av.it.:   9.6
      thresh= 2.958E-06 alpha_mix =  0.700 |ddv_scf|^2 =  2.817E-11

      iter #   6 total cpu time :  2162.6 secs   av.it.:   9.7
      thresh= 5.308E-07 alpha_mix =  0.700 |ddv_scf|^2 =  1.704E-12

      iter #   7 total cpu time :  2183.4 secs   av.it.:   9.6
      thresh= 1.305E-07 alpha_mix =  0.700 |ddv_scf|^2 =  2.205E-14

      iter #   8 total cpu time :  2213.0 secs   av.it.:  10.0
      thresh= 1.485E-08 alpha_mix =  0.700 |ddv_scf|^2 =  4.136E-15

      iter #   9 total cpu time :  2238.4 secs   av.it.:   9.5
      thresh= 6.431E-09 alpha_mix =  0.700 |ddv_scf|^2 =  4.677E-15

      iter #  10 total cpu time :  2259.2 secs   av.it.:   8.6
      thresh= 6.839E-09 alpha_mix =  0.700 |ddv_scf|^2 =  4.869E-16

      iter #  11 total cpu time :  2286.9 secs   av.it.:   9.0
      thresh= 2.207E-09 alpha_mix =  0.700 |ddv_scf|^2 =  1.528E-16

      iter #  12 total cpu time :  2304.4 secs   av.it.:   8.8
      thresh= 1.236E-09 alpha_mix =  0.700 |ddv_scf|^2 =  2.871E-18

     End of self-consistent calculation

     Convergence has been achieved 


     Representation #  11 mode #  11

     Self-consistent Calculation

      iter #   1 total cpu time :  2322.4 secs   av.it.:   4.2
      thresh= 1.000E-02 alpha_mix =  0.700 |ddv_scf|^2 =  2.294E-06

      iter #   2 total cpu time :  2356.0 secs   av.it.:   9.5
      thresh= 1.514E-04 alpha_mix =  0.700 |ddv_scf|^2 =  9.099E-06

      iter #   3 total cpu time :  2380.2 secs   av.it.:   8.2
      thresh= 3.016E-04 alpha_mix =  0.700 |ddv_scf|^2 =  5.974E-08

      iter #   4 total cpu time :  2398.7 secs   av.it.:   9.1
      thresh= 2.444E-05 alpha_mix =  0.700 |ddv_scf|^2 =  9.470E-10

      iter #   5 total cpu time :  2421.4 secs   av.it.:   9.6
      thresh= 3.077E-06 alpha_mix =  0.700 |ddv_scf|^2 =  5.660E-11

      iter #   6 total cpu time :  2436.8 secs   av.it.:   9.7
      thresh= 7.523E-07 alpha_mix =  0.700 |ddv_scf|^2 =  9.870E-13

      iter #   7 total cpu time :  2458.0 secs   av.it.:   9.7
      thresh= 9.935E-08 alpha_mix =  0.700 |ddv_scf|^2 =  4.722E-14

      iter #   8 total cpu time :  2471.1 secs   av.it.:   9.8
      thresh= 2.173E-08 alpha_mix =  0.700 |ddv_scf|^2 =  4.685E-15

      iter #   9 total cpu time :  2491.6 secs   av.it.:   9.7
      thresh= 6.845E-09 alpha_mix =  0.700 |ddv_scf|^2 =  9.464E-15

      iter #  10 total cpu time :  2505.6 secs   av.it.:   8.3
      thresh= 9.728E-09 alpha_mix =  0.700 |ddv_scf|^2 =  1.719E-16

      iter #  11 total cpu time :  2527.4 secs   av.it.:   9.4
      thresh= 1.311E-09 alpha_mix =  0.700 |ddv_scf|^2 =  4.900E-17

     End of self-consistent calculation

     Convergence has been achieved 


     Representation #  12 mode #  12

     Self-consistent Calculation

      iter #   1 total cpu time :  2541.9 secs   av.it.:   3.7
      thresh= 1.000E-02 alpha_mix =  0.700 |ddv_scf|^2 =  1.864E-07

      iter #   2 total cpu time :  2563.8 secs   av.it.:   9.4
      thresh= 4.317E-05 alpha_mix =  0.700 |ddv_scf|^2 =  1.050E-07

      iter #   3 total cpu time :  2583.0 secs   av.it.:   8.8
      thresh= 3.240E-05 alpha_mix =  0.700 |ddv_scf|^2 =  4.741E-10

      iter #   4 total cpu time :  2608.2 secs   av.it.:   9.4
      thresh= 2.177E-06 alpha_mix =  0.700 |ddv_scf|^2 =  1.978E-11

      iter #   5 total cpu time :  2627.6 secs   av.it.:   9.5
      thresh= 4.447E-07 alpha_mix =  0.700 |ddv_scf|^2 =  3.021E-13

      iter #   6 total cpu time :  2655.9 secs   av.it.:   9.6
      thresh= 5.496E-08 alpha_mix =  0.700 |ddv_scf|^2 =  1.062E-14

      iter #   7 total cpu time :  2682.6 secs   av.it.:   9.6
      thresh= 1.031E-08 alpha_mix =  0.700 |ddv_scf|^2 =  4.099E-16

      iter #   8 total cpu time :  2707.4 secs   av.it.:   9.7
      thresh= 2.025E-09 alpha_mix =  0.700 |ddv_scf|^2 =  1.482E-17

     End of self-consistent calculation

     Convergence has been achieved 


     Representation #  13 mode #  13

     Self-consistent Calculation

      iter #   1 total cpu time :  2727.4 secs   av.it.:   4.0
      thresh= 1.000E-02 alpha_mix =  0.700 |ddv_scf|^2 =  3.636E-07

      iter #   2 total cpu time :  2746.8 secs   av.it.:   9.4
      thresh= 6.030E-05 alpha_mix =  0.700 |ddv_scf|^2 =  2.189E-07

      iter #   3 total cpu time :  2766.0 secs   av.it.:   8.8
      thresh= 4.679E-05 alpha_mix =  0.700 |ddv_scf|^2 =  4.566E-10

      iter #   4 total cpu time :  2785.0 secs   av.it.:   9.4
      thresh= 2.137E-06 alpha_mix =  0.700 |ddv_scf|^2 =  1.092E-11

      iter #   5 total cpu time :  2811.4 secs   av.it.:   9.6
      thresh= 3.304E-07 alpha_mix =  0.700 |ddv_scf|^2 =  3.561E-13

      iter #   6 total cpu time :  2837.9 secs   av.it.:   9.6
      thresh= 5.967E-08 alpha_mix =  0.700 |ddv_scf|^2 =  4.388E-15

      iter #   7 total cpu time :  2868.3 secs   av.it.:   9.8
      thresh= 6.625E-09 alpha_mix =  0.700 |ddv_scf|^2 =  1.901E-16

      iter #   8 total cpu time :  2890.2 secs   av.it.:   9.6
      thresh= 1.379E-09 alpha_mix =  0.700 |ddv_scf|^2 =  1.304E-17

     End of self-consistent calculation

     Convergence has been achieved 


     Representation #  14 mode #  14

     Self-consistent Calculation

      iter #   1 total cpu time :  2909.6 secs   av.it.:   3.9
      thresh= 1.000E-02 alpha_mix =  0.700 |ddv_scf|^2 =  2.669E-07

      iter #   2 total cpu time :  2928.2 secs   av.it.:   9.5
      thresh= 5.167E-05 alpha_mix =  0.700 |ddv_scf|^2 =  1.585E-07

      iter #   3 total cpu time :  2950.5 secs   av.it.:   8.8
      thresh= 3.981E-05 alpha_mix =  0.700 |ddv_scf|^2 =  4.591E-10

      iter #   4 total cpu time :  2966.3 secs   av.it.:   9.3
      thresh= 2.143E-06 alpha_mix =  0.700 |ddv_scf|^2 =  9.136E-12

      iter #   5 total cpu time :  2989.6 secs   av.it.:   9.3
      thresh= 3.023E-07 alpha_mix =  0.700 |ddv_scf|^2 =  1.981E-13

      iter #   6 total cpu time :  3007.9 secs   av.it.:   9.4
      thresh= 4.451E-08 alpha_mix =  0.700 |ddv_scf|^2 =  2.586E-15

      iter #   7 total cpu time :  3031.8 secs   av.it.:   9.8
      thresh= 5.085E-09 alpha_mix =  0.700 |ddv_scf|^2 =  1.450E-16

      iter #   8 total cpu time :  3052.0 secs   av.it.:   9.8
      thresh= 1.204E-09 alpha_mix =  0.700 |ddv_scf|^2 =  1.198E-17

     End of self-consistent calculation

     Convergence has been achieved 


     Representation #  15 mode #  15

     Self-consistent Calculation

      iter #   1 total cpu time :  3071.2 secs   av.it.:   3.8
      thresh= 1.000E-02 alpha_mix =  0.700 |ddv_scf|^2 =  6.842E-08

      iter #   2 total cpu time :  3085.9 secs   av.it.:   9.5
      thresh= 2.616E-05 alpha_mix =  0.700 |ddv_scf|^2 =  5.649E-09

      iter #   3 total cpu time :  3106.1 secs   av.it.:   9.7
      thresh= 7.516E-06 alpha_mix =  0.700 |ddv_scf|^2 =  1.344E-09

      iter #   4 total cpu time :  3122.1 secs   av.it.:   9.0
      thresh= 3.666E-06 alpha_mix =  0.700 |ddv_scf|^2 =  3.643E-11

      iter #   5 total cpu time :  3146.4 secs   av.it.:   9.5
      thresh= 6.036E-07 alpha_mix =  0.700 |ddv_scf|^2 =  7.660E-13

      iter #   6 total cpu time :  3170.4 secs   av.it.:   9.4
      thresh= 8.752E-08 alpha_mix =  0.700 |ddv_scf|^2 =  9.110E-15

      iter #   7 total cpu time :  3199.7 secs   av.it.:   9.6
      thresh= 9.545E-09 alpha_mix =  0.700 |ddv_scf|^2 =  3.652E-16

      iter #   8 total cpu time :  3222.9 secs   av.it.:   9.5
      thresh= 1.911E-09 alpha_mix =  0.700 |ddv_scf|^2 =  1.744E-17

     End of self-consistent calculation

     Convergence has been achieved 


     Representation #  16 mode #  16

     Self-consistent Calculation

      iter #   1 total cpu time :  3242.8 secs   av.it.:   6.6
      thresh= 1.000E-02 alpha_mix =  0.700 |ddv_scf|^2 =  3.373E-05

      iter #   2 total cpu time :  3263.2 secs   av.it.:   9.6
      thresh= 5.808E-04 alpha_mix =  0.700 |ddv_scf|^2 =  2.151E-05

      iter #   3 total cpu time :  3283.8 secs   av.it.:   8.8
      thresh= 4.638E-04 alpha_mix =  0.700 |ddv_scf|^2 =  2.742E-08

      iter #   4 total cpu time :  3302.9 secs   av.it.:   9.7
      thresh= 1.656E-05 alpha_mix =  0.700 |ddv_scf|^2 =  9.651E-10

      iter #   5 total cpu time :  3324.1 secs   av.it.:   9.1
      thresh= 3.107E-06 alpha_mix =  0.700 |ddv_scf|^2 =  3.771E-12

      iter #   6 total cpu time :  3341.5 secs   av.it.:   9.4
      thresh= 1.942E-07 alpha_mix =  0.700 |ddv_scf|^2 =  1.711E-13

      iter #   7 total cpu time :  3369.5 secs   av.it.:   9.2
      thresh= 4.137E-08 alpha_mix =  0.700 |ddv_scf|^2 =  3.096E-15

      iter #   8 total cpu time :  3389.9 secs   av.it.:   9.2
      thresh= 5.564E-09 alpha_mix =  0.700 |ddv_scf|^2 =  2.441E-16

      iter #   9 total cpu time :  3413.5 secs   av.it.:   9.3
      thresh= 1.562E-09 alpha_mix =  0.700 |ddv_scf|^2 =  7.932E-18

     End of self-consistent calculation

     Convergence has been achieved 


     Representation #  17 mode #  17

     Self-consistent Calculation

      iter #   1 total cpu time :  3429.2 secs   av.it.:   3.7
      thresh= 1.000E-02 alpha_mix =  0.700 |ddv_scf|^2 =  1.874E-07

      iter #   2 total cpu time :  3449.6 secs   av.it.:   9.5
      thresh= 4.329E-05 alpha_mix =  0.700 |ddv_scf|^2 =  1.086E-07

      iter #   3 total cpu time :  3481.3 secs   av.it.:   8.9
      thresh= 3.295E-05 alpha_mix =  0.700 |ddv_scf|^2 =  3.946E-10

      iter #   4 total cpu time :  3502.9 secs   av.it.:   9.2
      thresh= 1.986E-06 alpha_mix =  0.700 |ddv_scf|^2 =  1.197E-11

      iter #   5 total cpu time :  3530.3 secs   av.it.:   9.3
      thresh= 3.460E-07 alpha_mix =  0.700 |ddv_scf|^2 =  1.988E-13

      iter #   6 total cpu time :  3546.7 secs   av.it.:   9.6
      thresh= 4.459E-08 alpha_mix =  0.700 |ddv_scf|^2 =  4.629E-15

      iter #   7 total cpu time :  3569.4 secs   av.it.:   9.8
      thresh= 6.803E-09 alpha_mix =  0.700 |ddv_scf|^2 =  3.000E-16

      iter #   8 total cpu time :  3588.7 secs   av.it.:   9.6
      thresh= 1.732E-09 alpha_mix =  0.700 |ddv_scf|^2 =  1.001E-17

     End of self-consistent calculation

     Convergence has been achieved 


     Representation #  18 mode #  18

     Self-consistent Calculation

      iter #   1 total cpu time :  3608.8 secs   av.it.:   3.6
      thresh= 1.000E-02 alpha_mix =  0.700 |ddv_scf|^2 =  8.929E-08

      iter #   2 total cpu time :  3641.1 secs   av.it.:   9.5
      thresh= 2.988E-05 alpha_mix =  0.700 |ddv_scf|^2 =  4.962E-08

      iter #   3 total cpu time :  3664.1 secs   av.it.:   8.9
      thresh= 2.228E-05 alpha_mix =  0.700 |ddv_scf|^2 =  3.361E-10

      iter #   4 total cpu time :  3694.5 secs   av.it.:   9.3
      thresh= 1.833E-06 alpha_mix =  0.700 |ddv_scf|^2 =  9.501E-12

      iter #   5 total cpu time :  3715.3 secs   av.it.:   9.6
      thresh= 3.082E-07 alpha_mix =  0.700 |ddv_scf|^2 =  2.756E-13

      iter #   6 total cpu time :  3741.6 secs   av.it.:   9.6
      thresh= 5.250E-08 alpha_mix =  0.700 |ddv_scf|^2 =  3.704E-15

      iter #   7 total cpu time :  3763.3 secs   av.it.:   9.6
      thresh= 6.086E-09 alpha_mix =  0.700 |ddv_scf|^2 =  8.489E-17

     End of self-consistent calculation

     Convergence has been achieved 


     Representation #  19 mode #  19

     Self-consistent Calculation

      iter #   1 total cpu time :  3785.9 secs   av.it.:   3.9
      thresh= 1.000E-02 alpha_mix =  0.700 |ddv_scf|^2 =  2.297E-07

      iter #   2 total cpu time :  3799.3 secs   av.it.:   9.5
      thresh= 4.793E-05 alpha_mix =  0.700 |ddv_scf|^2 =  1.301E-07

      iter #   3 total cpu time :  3815.3 secs   av.it.:   8.9
      thresh= 3.607E-05 alpha_mix =  0.700 |ddv_scf|^2 =  5.262E-10

      iter #   4 total cpu time :  3833.9 secs   av.it.:   9.5
      thresh= 2.294E-06 alpha_mix =  0.700 |ddv_scf|^2 =  1.495E-11

      iter #   5 total cpu time :  3849.8 secs   av.it.:   9.5
      thresh= 3.866E-07 alpha_mix =  0.700 |ddv_scf|^2 =  2.807E-13

      iter #   6 total cpu time :  3869.2 secs   av.it.:   9.7
      thresh= 5.298E-08 alpha_mix =  0.700 |ddv_scf|^2 =  1.229E-14

      iter #   7 total cpu time :  3887.3 secs   av.it.:   9.7
      thresh= 1.109E-08 alpha_mix =  0.700 |ddv_scf|^2 =  5.286E-16

      iter #   8 total cpu time :  3909.1 secs   av.it.:   9.5
      thresh= 2.299E-09 alpha_mix =  0.700 |ddv_scf|^2 =  1.214E-17

     End of self-consistent calculation

     Convergence has been achieved 


     Representation #  20 mode #  20

     Self-consistent Calculation

      iter #   1 total cpu time :  3924.2 secs   av.it.:   3.7
      thresh= 1.000E-02 alpha_mix =  0.700 |ddv_scf|^2 =  8.079E-08

      iter #   2 total cpu time :  3943.5 secs   av.it.:   9.5
      thresh= 2.842E-05 alpha_mix =  0.700 |ddv_scf|^2 =  3.207E-08

      iter #   3 total cpu time :  3957.7 secs   av.it.:   8.9
      thresh= 1.791E-05 alpha_mix =  0.700 |ddv_scf|^2 =  8.252E-10

      iter #   4 total cpu time :  3979.4 secs   av.it.:   9.2
      thresh= 2.873E-06 alpha_mix =  0.700 |ddv_scf|^2 =  2.231E-11

      iter #   5 total cpu time :  3993.1 secs   av.it.:   9.5
      thresh= 4.723E-07 alpha_mix =  0.700 |ddv_scf|^2 =  3.257E-13

      iter #   6 total cpu time :  4021.1 secs   av.it.:   9.6
      thresh= 5.707E-08 alpha_mix =  0.700 |ddv_scf|^2 =  9.502E-15

      iter #   7 total cpu time :  4035.8 secs   av.it.:   9.6
      thresh= 9.748E-09 alpha_mix =  0.700 |ddv_scf|^2 =  4.707E-16

      iter #   8 total cpu time :  4066.3 secs   av.it.:   9.6
      thresh= 2.170E-09 alpha_mix =  0.700 |ddv_scf|^2 =  1.143E-17

     End of self-consistent calculation

     Convergence has been achieved 


     Representation #  21 mode #  21

     Self-consistent Calculation

      iter #   1 total cpu time :  4114.9 secs   av.it.:   3.8
      thresh= 1.000E-02 alpha_mix =  0.700 |ddv_scf|^2 =  1.591E-07

      iter #   2 total cpu time :  4132.9 secs   av.it.:   9.5
      thresh= 3.989E-05 alpha_mix =  0.700 |ddv_scf|^2 =  8.582E-08

      iter #   3 total cpu time :  4152.7 secs   av.it.:   8.9
      thresh= 2.929E-05 alpha_mix =  0.700 |ddv_scf|^2 =  5.609E-10

      iter #   4 total cpu time :  4173.0 secs   av.it.:   9.3
      thresh= 2.368E-06 alpha_mix =  0.700 |ddv_scf|^2 =  1.185E-11

      iter #   5 total cpu time :  4188.2 secs   av.it.:   9.6
      thresh= 3.442E-07 alpha_mix =  0.700 |ddv_scf|^2 =  4.274E-13

      iter #   6 total cpu time :  4208.9 secs   av.it.:   9.6
      thresh= 6.538E-08 alpha_mix =  0.700 |ddv_scf|^2 =  3.898E-15

      iter #   7 total cpu time :  4228.6 secs   av.it.:   9.7
      thresh= 6.244E-09 alpha_mix =  0.700 |ddv_scf|^2 =  1.428E-16

      iter #   8 total cpu time :  4251.0 secs   av.it.:   9.6
      thresh= 1.195E-09 alpha_mix =  0.700 |ddv_scf|^2 =  9.066E-18

     End of self-consistent calculation

     Convergence has been achieved 
 
     Number of q in the star =   24
     List of q in the star:
          1   0.433012702   0.216506351   0.216506351
          2  -0.433012702   0.216506351   0.216506351
          3   0.216506351  -0.433012702   0.216506351
          4  -0.216506351  -0.433012702   0.216506351
          5  -0.433012702  -0.216506351   0.216506351
          6   0.216506351   0.433012702   0.216506351
          7   0.216506351  -0.216506351  -0.433012702
          8  -0.216506351  -0.216506351   0.433012702
          9   0.216506351   0.216506351   0.433012702
         10   0.216506351  -0.433012702  -0.216506351
         11  -0.216506351   0.433012702  -0.216506351
         12  -0.433012702   0.216506351  -0.216506351
         13   0.433012702  -0.216506351  -0.216506351
         14  -0.433012702  -0.216506351  -0.216506351
         15   0.433012702   0.216506351  -0.216506351
         16   0.433012702  -0.216506351   0.216506351
         17  -0.216506351   0.433012702   0.216506351
         18   0.216506351  -0.216506351   0.433012702
         19  -0.216506351   0.216506351  -0.433012702
         20  -0.216506351  -0.433012702  -0.216506351
         21  -0.216506351  -0.216506351  -0.433012702
         22   0.216506351   0.216506351  -0.433012702
         23  -0.216506351   0.216506351   0.433012702
         24   0.216506351   0.433012702  -0.216506351

     Diagonalizing the dynamical matrix

     q = (    0.433012702   0.216506351   0.216506351 ) 

 **************************************************************************
     freq (    1) =       9.118041 [THz] =     304.145124 [cm-1]
     freq (    2) =       9.932025 [THz] =     331.296694 [cm-1]
     freq (    3) =      12.978186 [THz] =     432.905690 [cm-1]
     freq (    4) =      26.394587 [THz] =     880.428639 [cm-1]
     freq (    5) =      28.919596 [THz] =     964.653871 [cm-1]
     freq (    6) =      33.108404 [THz] =    1104.377482 [cm-1]
     freq (    7) =      35.949219 [THz] =    1199.136865 [cm-1]
     freq (    8) =      36.404485 [THz] =    1214.322903 [cm-1]
     freq (    9) =      38.776895 [THz] =    1293.458001 [cm-1]
     freq (   10) =      40.125955 [THz] =    1338.457791 [cm-1]
     freq (   11) =      40.619234 [THz] =    1354.911795 [cm-1]
     freq (   12) =      41.940853 [THz] =    1398.996253 [cm-1]
     freq (   13) =      43.296721 [THz] =    1444.223163 [cm-1]
     freq (   14) =      43.332198 [THz] =    1445.406527 [cm-1]
     freq (   15) =      44.226193 [THz] =    1475.227012 [cm-1]
     freq (   16) =      45.875902 [THz] =    1530.255361 [cm-1]
     freq (   17) =      46.647085 [THz] =    1555.979265 [cm-1]
     freq (   18) =      47.521874 [THz] =    1585.159085 [cm-1]
     freq (   19) =      48.502471 [THz] =    1617.868293 [cm-1]
     freq (   20) =      55.068671 [THz] =    1836.893130 [cm-1]
     freq (   21) =      56.884575 [THz] =    1897.465172 [cm-1]
 **************************************************************************

     Mode symmetry, C_s (m)     point group:

     freq (   1-   1) =        304.1  [cm-1]   --> A''                
     freq (   2-   2) =        331.3  [cm-1]   --> A'                 
     freq (   3-   3) =        432.9  [cm-1]   --> A'                 
     freq (   4-   4) =        880.4  [cm-1]   --> A''                
     freq (   5-   5) =        964.7  [cm-1]   --> A'                 
     freq (   6-   6) =       1104.4  [cm-1]   --> A'                 
     freq (   7-   7) =       1199.1  [cm-1]   --> A'                 
     freq (   8-   8) =       1214.3  [cm-1]   --> A''                
     freq (   9-   9) =       1293.5  [cm-1]   --> A''                
     freq (  10-  10) =       1338.5  [cm-1]   --> A'                 
     freq (  11-  11) =       1354.9  [cm-1]   --> A''                
     freq (  12-  12) =       1399.0  [cm-1]   --> A''                
     freq (  13-  13) =       1444.2  [cm-1]   --> A''                
     freq (  14-  14) =       1445.4  [cm-1]   --> A'                 
     freq (  15-  15) =       1475.2  [cm-1]   --> A'                 
     freq (  16-  16) =       1530.3  [cm-1]   --> A''                
     freq (  17-  17) =       1556.0  [cm-1]   --> A'                 
     freq (  18-  18) =       1585.2  [cm-1]   --> A'                 
     freq (  19-  19) =       1617.9  [cm-1]   --> A''                
     freq (  20-  20) =       1836.9  [cm-1]   --> A''                
     freq (  21-  21) =       1897.5  [cm-1]   --> A'                 
     electron-phonon interaction  ...

     Gaussian Broadening:   0.005 Ry, ngauss=   0
     DOS =  1.900675 states/spin/Ry/Unit Cell at Ef= 17.155196 eV
     lambda(    1)=  0.0447   gamma=    6.75 GHz
     lambda(    2)=  0.0095   gamma=    1.70 GHz
     lambda(    3)=  0.0144   gamma=    4.42 GHz
     lambda(    4)=  0.1769   gamma=  223.71 GHz
     lambda(    5)=  0.2198   gamma=  333.62 GHz
     lambda(    6)=  0.0261   gamma=   51.93 GHz
     lambda(    7)=  0.1414   gamma=  331.76 GHz
     lambda(    8)=  0.0202   gamma=   48.52 GHz
     lambda(    9)=  0.0047   gamma=   12.94 GHz
     lambda(   10)=  0.0153   gamma=   44.62 GHz
     lambda(   11)=  0.0039   gamma=   11.58 GHz
     lambda(   12)=  0.0061   gamma=   19.61 GHz
     lambda(   13)=  0.0011   gamma=    3.58 GHz
     lambda(   14)=  0.0022   gamma=    7.44 GHz
     lambda(   15)=  0.0212   gamma=   75.18 GHz
     lambda(   16)=  0.0008   gamma=    3.05 GHz
     lambda(   17)=  0.0046   gamma=   18.36 GHz
     lambda(   18)=  0.0232   gamma=   94.92 GHz
     lambda(   19)=  0.0009   gamma=    3.79 GHz
     lambda(   20)=  0.0012   gamma=    6.76 GHz
     lambda(   21)=  0.0020   gamma=   11.81 GHz
     Gaussian Broadening:   0.010 Ry, ngauss=   0
     DOS =  2.130656 states/spin/Ry/Unit Cell at Ef= 17.149400 eV
     lambda(    1)=  0.1196   gamma=   20.23 GHz
     lambda(    2)=  0.0510   gamma=   10.23 GHz
     lambda(    3)=  0.0198   gamma=    6.78 GHz
     lambda(    4)=  0.4688   gamma=  664.53 GHz
     lambda(    5)=  0.4317   gamma=  734.54 GHz
     lambda(    6)=  0.1357   gamma=  302.70 GHz
     lambda(    7)=  0.1850   gamma=  486.55 GHz
     lambda(    8)=  0.1023   gamma=  275.88 GHz
     lambda(    9)=  0.0623   gamma=  190.50 GHz
     lambda(   10)=  0.0186   gamma=   61.00 GHz
     lambda(   11)=  0.0196   gamma=   65.72 GHz
     lambda(   12)=  0.0242   gamma=   86.67 GHz
     lambda(   13)=  0.0034   gamma=   12.96 GHz
     lambda(   14)=  0.0103   gamma=   39.49 GHz
     lambda(   15)=  0.0524   gamma=  208.61 GHz
     lambda(   16)=  0.0023   gamma=    9.79 GHz
     lambda(   17)=  0.0136   gamma=   60.19 GHz
     lambda(   18)=  0.0296   gamma=  135.92 GHz
     lambda(   19)=  0.0069   gamma=   33.10 GHz
     lambda(   20)=  0.0075   gamma=   46.58 GHz
     lambda(   21)=  0.0095   gamma=   62.49 GHz
     Gaussian Broadening:   0.015 Ry, ngauss=   0
     DOS =  2.235086 states/spin/Ry/Unit Cell at Ef= 17.146382 eV
     lambda(    1)=  0.1312   gamma=   23.29 GHz
     lambda(    2)=  0.0632   gamma=   13.30 GHz
     lambda(    3)=  0.0209   gamma=    7.51 GHz
     lambda(    4)=  0.5001   gamma=  743.66 GHz
     lambda(    5)=  0.4846   gamma=  865.07 GHz
     lambda(    6)=  0.1743   gamma=  407.75 GHz
     lambda(    7)=  0.1827   gamma=  503.85 GHz
     lambda(    8)=  0.1222   gamma=  345.76 GHz
     lambda(    9)=  0.0949   gamma=  304.72 GHz
     lambda(   10)=  0.0188   gamma=   64.47 GHz
     lambda(   11)=  0.0250   gamma=   88.02 GHz
     lambda(   12)=  0.0294   gamma=  110.46 GHz
     lambda(   13)=  0.0042   gamma=   16.75 GHz
     lambda(   14)=  0.0122   gamma=   48.89 GHz
     lambda(   15)=  0.0603   gamma=  251.80 GHz
     lambda(   16)=  0.0027   gamma=   12.11 GHz
     lambda(   17)=  0.0179   gamma=   83.21 GHz
     lambda(   18)=  0.0279   gamma=  134.64 GHz
     lambda(   19)=  0.0100   gamma=   50.11 GHz
     lambda(   20)=  0.0096   gamma=   62.09 GHz
     lambda(   21)=  0.0132   gamma=   91.40 GHz
     Gaussian Broadening:   0.020 Ry, ngauss=   0
     DOS =  2.290454 states/spin/Ry/Unit Cell at Ef= 17.145317 eV
     lambda(    1)=  0.1280   gamma=   23.27 GHz
     lambda(    2)=  0.0640   gamma=   13.82 GHz
     lambda(    3)=  0.0212   gamma=    7.80 GHz
     lambda(    4)=  0.4783   gamma=  728.86 GHz
     lambda(    5)=  0.4886   gamma=  893.72 GHz
     lambda(    6)=  0.1777   gamma=  426.00 GHz
     lambda(    7)=  0.1793   gamma=  506.69 GHz
     lambda(    8)=  0.1219   gamma=  353.47 GHz
     lambda(    9)=  0.1054   gamma=  346.63 GHz
     lambda(   10)=  0.0184   gamma=   64.83 GHz
     lambda(   11)=  0.0260   gamma=   93.76 GHz
     lambda(   12)=  0.0301   gamma=  115.69 GHz
     lambda(   13)=  0.0044   gamma=   17.95 GHz
     lambda(   14)=  0.0118   gamma=   48.58 GHz
     lambda(   15)=  0.0590   gamma=  252.42 GHz
     lambda(   16)=  0.0028   gamma=   12.85 GHz
     lambda(   17)=  0.0191   gamma=   91.06 GHz
     lambda(   18)=  0.0259   gamma=  127.85 GHz
     lambda(   19)=  0.0109   gamma=   56.02 GHz
     lambda(   20)=  0.0098   gamma=   65.17 GHz
     lambda(   21)=  0.0148   gamma=  104.47 GHz
     Gaussian Broadening:   0.025 Ry, ngauss=   0
     DOS =  2.332190 states/spin/Ry/Unit Cell at Ef= 17.144758 eV
     lambda(    1)=  0.1260   gamma=   23.33 GHz
     lambda(    2)=  0.0631   gamma=   13.86 GHz
     lambda(    3)=  0.0214   gamma=    8.04 GHz
     lambda(    4)=  0.4631   gamma=  718.48 GHz
     lambda(    5)=  0.4832   gamma=  900.02 GHz
     lambda(    6)=  0.1740   gamma=  424.68 GHz
     lambda(    7)=  0.1775   gamma=  510.88 GHz
     lambda(    8)=  0.1206   gamma=  355.83 GHz
     lambda(    9)=  0.1085   gamma=  363.41 GHz
     lambda(   10)=  0.0183   gamma=   65.57 GHz
     lambda(   11)=  0.0262   gamma=   96.16 GHz
     lambda(   12)=  0.0300   gamma=  117.39 GHz
     lambda(   13)=  0.0045   gamma=   18.60 GHz
     lambda(   14)=  0.0114   gamma=   47.55 GHz
     lambda(   15)=  0.0569   gamma=  247.66 GHz
     lambda(   16)=  0.0029   gamma=   13.37 GHz
     lambda(   17)=  0.0196   gamma=   94.87 GHz
     lambda(   18)=  0.0246   gamma=  123.73 GHz
     lambda(   19)=  0.0111   gamma=   58.26 GHz
     lambda(   20)=  0.0097   gamma=   65.64 GHz
     lambda(   21)=  0.0157   gamma=  112.99 GHz
     Gaussian Broadening:   0.030 Ry, ngauss=   0
     DOS =  2.360595 states/spin/Ry/Unit Cell at Ef= 17.144134 eV
     lambda(    1)=  0.1260   gamma=   23.62 GHz
     lambda(    2)=  0.0622   gamma=   13.84 GHz
     lambda(    3)=  0.0216   gamma=    8.22 GHz
     lambda(    4)=  0.4562   gamma=  716.38 GHz
     lambda(    5)=  0.4771   gamma=  899.43 GHz
     lambda(    6)=  0.1707   gamma=  421.79 GHz
     lambda(    7)=  0.1755   gamma=  511.21 GHz
     lambda(    8)=  0.1203   gamma=  359.28 GHz
     lambda(    9)=  0.1094   gamma=  370.87 GHz
     lambda(   10)=  0.0184   gamma=   66.68 GHz
     lambda(   11)=  0.0264   gamma=   98.04 GHz
     lambda(   12)=  0.0298   gamma=  117.97 GHz
     lambda(   13)=  0.0045   gamma=   19.14 GHz
     lambda(   14)=  0.0111   gamma=   47.13 GHz
     lambda(   15)=  0.0554   gamma=  244.43 GHz
     lambda(   16)=  0.0029   gamma=   13.90 GHz
     lambda(   17)=  0.0199   gamma=   97.71 GHz
     lambda(   18)=  0.0238   gamma=  121.15 GHz
     lambda(   19)=  0.0113   gamma=   59.78 GHz
     lambda(   20)=  0.0096   gamma=   65.89 GHz
     lambda(   21)=  0.0164   gamma=  119.86 GHz
     Gaussian Broadening:   0.035 Ry, ngauss=   0
     DOS =  2.381114 states/spin/Ry/Unit Cell at Ef= 17.143351 eV
     lambda(    1)=  0.1270   gamma=   24.01 GHz
     lambda(    2)=  0.0617   gamma=   13.84 GHz
     lambda(    3)=  0.0218   gamma=    8.35 GHz
     lambda(    4)=  0.4531   gamma=  717.80 GHz
     lambda(    5)=  0.4712   gamma=  896.13 GHz
     lambda(    6)=  0.1689   gamma=  420.96 GHz
     lambda(    7)=  0.1731   gamma=  508.75 GHz
     lambda(    8)=  0.1206   gamma=  363.46 GHz
     lambda(    9)=  0.1096   gamma=  374.61 GHz
     lambda(   10)=  0.0186   gamma=   68.04 GHz
     lambda(   11)=  0.0267   gamma=  100.17 GHz
     lambda(   12)=  0.0296   gamma=  118.32 GHz
     lambda(   13)=  0.0046   gamma=   19.65 GHz
     lambda(   14)=  0.0111   gamma=   47.20 GHz
     lambda(   15)=  0.0546   gamma=  242.85 GHz
     lambda(   16)=  0.0030   gamma=   14.51 GHz
     lambda(   17)=  0.0203   gamma=  100.36 GHz
     lambda(   18)=  0.0232   gamma=  119.38 GHz
     lambda(   19)=  0.0115   gamma=   61.52 GHz
     lambda(   20)=  0.0096   gamma=   66.52 GHz
     lambda(   21)=  0.0172   gamma=  126.28 GHz
     Gaussian Broadening:   0.040 Ry, ngauss=   0
     DOS =  2.398900 states/spin/Ry/Unit Cell at Ef= 17.142416 eV
     lambda(    1)=  0.1286   gamma=   24.50 GHz
     lambda(    2)=  0.0614   gamma=   13.88 GHz
     lambda(    3)=  0.0220   gamma=    8.48 GHz
     lambda(    4)=  0.4517   gamma=  720.89 GHz
     lambda(    5)=  0.4656   gamma=  891.98 GHz
     lambda(    6)=  0.1680   gamma=  421.95 GHz
     lambda(    7)=  0.1707   gamma=  505.42 GHz
     lambda(    8)=  0.1214   gamma=  368.58 GHz
     lambda(    9)=  0.1097   gamma=  377.70 GHz
     lambda(   10)=  0.0189   gamma=   69.64 GHz
     lambda(   11)=  0.0272   gamma=  102.82 GHz
     lambda(   12)=  0.0295   gamma=  119.00 GHz
     lambda(   13)=  0.0047   gamma=   20.21 GHz
     lambda(   14)=  0.0111   gamma=   47.56 GHz
     lambda(   15)=  0.0541   gamma=  242.31 GHz
     lambda(   16)=  0.0032   gamma=   15.24 GHz
     lambda(   17)=  0.0207   gamma=  103.10 GHz
     lambda(   18)=  0.0228   gamma=  118.16 GHz
     lambda(   19)=  0.0118   gamma=   63.66 GHz
     lambda(   20)=  0.0097   gamma=   67.67 GHz
     lambda(   21)=  0.0179   gamma=  132.68 GHz
     Gaussian Broadening:   0.045 Ry, ngauss=   0
     DOS =  2.416850 states/spin/Ry/Unit Cell at Ef= 17.141341 eV
     lambda(    1)=  0.1309   gamma=   25.11 GHz
     lambda(    2)=  0.0613   gamma=   13.95 GHz
     lambda(    3)=  0.0222   gamma=    8.63 GHz
     lambda(    4)=  0.4511   gamma=  725.35 GHz
     lambda(    5)=  0.4601   gamma=  888.16 GHz
     lambda(    6)=  0.1677   gamma=  424.37 GHz
     lambda(    7)=  0.1685   gamma=  502.46 GHz
     lambda(    8)=  0.1226   gamma=  374.97 GHz
     lambda(    9)=  0.1100   gamma=  381.88 GHz
     lambda(   10)=  0.0192   gamma=   71.48 GHz
     lambda(   11)=  0.0278   gamma=  106.04 GHz
     lambda(   12)=  0.0296   gamma=  120.29 GHz
     lambda(   13)=  0.0048   gamma=   20.87 GHz
     lambda(   14)=  0.0111   gamma=   48.09 GHz
     lambda(   15)=  0.0537   gamma=  242.63 GHz
     lambda(   16)=  0.0033   gamma=   16.10 GHz
     lambda(   17)=  0.0211   gamma=  106.09 GHz
     lambda(   18)=  0.0225   gamma=  117.36 GHz
     lambda(   19)=  0.0122   gamma=   66.22 GHz
     lambda(   20)=  0.0099   gamma=   69.42 GHz
     lambda(   21)=  0.0186   gamma=  139.21 GHz
     Gaussian Broadening:   0.050 Ry, ngauss=   0
     DOS =  2.436152 states/spin/Ry/Unit Cell at Ef= 17.140123 eV
     lambda(    1)=  0.1337   gamma=   25.85 GHz
     lambda(    2)=  0.0613   gamma=   14.06 GHz
     lambda(    3)=  0.0225   gamma=    8.82 GHz
     lambda(    4)=  0.4511   gamma=  731.10 GHz
     lambda(    5)=  0.4550   gamma=  885.28 GHz
     lambda(    6)=  0.1679   gamma=  428.06 GHz
     lambda(    7)=  0.1665   gamma=  500.46 GHz
     lambda(    8)=  0.1241   gamma=  382.76 GHz
     lambda(    9)=  0.1108   gamma=  387.74 GHz
     lambda(   10)=  0.0196   gamma=   73.56 GHz
     lambda(   11)=  0.0286   gamma=  109.78 GHz
     lambda(   12)=  0.0299   gamma=  122.29 GHz
     lambda(   13)=  0.0050   gamma=   21.68 GHz
     lambda(   14)=  0.0112   gamma=   48.77 GHz
     lambda(   15)=  0.0536   gamma=  243.84 GHz
     lambda(   16)=  0.0035   gamma=   17.14 GHz
     lambda(   17)=  0.0216   gamma=  109.39 GHz
     lambda(   18)=  0.0223   gamma=  116.94 GHz
     lambda(   19)=  0.0126   gamma=   69.16 GHz
     lambda(   20)=  0.0102   gamma=   71.76 GHz
     lambda(   21)=  0.0194   gamma=  145.90 GHz
 
 
     Number of q in the star =   24
     List of q in the star:
          1   0.433012702   0.216506351   0.216506351
          2  -0.433012702   0.216506351   0.216506351
          3   0.216506351  -0.433012702   0.216506351
          4  -0.216506351  -0.433012702   0.216506351
          5  -0.433012702  -0.216506351   0.216506351
          6   0.216506351   0.433012702   0.216506351
          7   0.216506351  -0.216506351  -0.433012702
          8  -0.216506351  -0.216506351   0.433012702
          9   0.216506351   0.216506351   0.433012702
         10   0.216506351  -0.433012702  -0.216506351
         11  -0.216506351   0.433012702  -0.216506351
         12  -0.433012702   0.216506351  -0.216506351
         13   0.433012702  -0.216506351  -0.216506351
         14  -0.433012702  -0.216506351  -0.216506351
         15   0.433012702   0.216506351  -0.216506351
         16   0.433012702  -0.216506351   0.216506351
         17  -0.216506351   0.433012702   0.216506351
         18   0.216506351  -0.216506351   0.433012702
         19  -0.216506351   0.216506351  -0.433012702
         20  -0.216506351  -0.433012702  -0.216506351
         21  -0.216506351  -0.216506351  -0.433012702
         22   0.216506351   0.216506351  -0.433012702
         23  -0.216506351   0.216506351   0.433012702
         24   0.216506351   0.433012702  -0.216506351
 
     init_run     :      0.07s CPU      0.82s WALL (       1 calls)
     electrons    :     79.90s CPU     88.49s WALL (       1 calls)

     Called by init_run:
     wfcinit      :      0.00s CPU      0.16s WALL (       1 calls)
     potinit      :      0.01s CPU      0.38s WALL (       1 calls)
     hinit0       :      0.03s CPU      0.04s WALL (       1 calls)

     Called by electrons:
     c_bands      :     79.87s CPU     88.45s WALL (       1 calls)
     v_of_rho     :      0.01s CPU      0.02s WALL (       2 calls)
     newd         :      0.00s CPU      0.02s WALL (       2 calls)

     Called by c_bands:
     init_us_2    :      3.72s CPU      4.14s WALL (  139264 calls)
     cegterg      :     16.62s CPU     17.92s WALL (    1107 calls)

     Called by *egterg:
     cdiaghg      :      5.72s CPU      6.17s WALL (   17100 calls)
     h_psi        :   1331.42s CPU   1576.18s WALL ( 1569315 calls)
     s_psi        :     31.42s CPU     35.54s WALL ( 3233575 calls)
     g_psi        :      0.05s CPU      0.05s WALL (   16012 calls)

     Called by h_psi:
     h_psi:calbec :     28.96s CPU     32.57s WALL ( 1569315 calls)
     vloc_psi     :   1274.06s CPU   1511.63s WALL ( 1569315 calls)
     add_vuspsi   :     15.12s CPU     17.08s WALL ( 1569315 calls)

     General routines
     calbec       :     87.82s CPU     95.50s WALL ( 3411463 calls)
     fft          :      0.67s CPU      0.91s WALL (    4039 calls)
     ffts         :      0.65s CPU      0.73s WALL (   12325 calls)
     fftw         :   1836.80s CPU   2202.65s WALL (21433322 calls)
     interpolate  :      0.15s CPU      0.18s WALL (     439 calls)
     davcio       :     19.49s CPU    587.25s WALL (  606894 calls)
 
     Parallel routines
 
     PHONON       :  53m16.84s CPU      1h11m WALL

     INITIALIZATION: 
     phq_setup    :      0.01s CPU      0.03s WALL (       1 calls)
     phq_init     :     15.49s CPU     17.41s WALL (       1 calls)
 
     phq_init     :     15.49s CPU     17.41s WALL (       1 calls)
     set_drhoc    :      0.04s CPU      0.04s WALL (       3 calls)
     init_vloc    :      0.00s CPU      0.02s WALL (       2 calls)
     init_us_1    :      0.05s CPU      0.56s WALL (       2 calls)
     newd         :      0.00s CPU      0.02s WALL (       2 calls)
     dvanqq       :      0.17s CPU      0.17s WALL (       1 calls)
     drho         :     11.34s CPU     12.74s WALL (       1 calls)
 
     DYNAMICAL MATRIX:
     dynmat0      :      1.64s CPU      1.89s WALL (       1 calls)
     phqscf       :   3067.36s CPU   4140.07s WALL (       1 calls)
     dynmatrix    :      0.01s CPU      0.43s WALL (       1 calls)
 
     phqscf       :   3067.36s CPU   4140.07s WALL (       1 calls)
     solve_linter :   3033.97s CPU   4093.64s WALL (      21 calls)
     drhodv       :     33.37s CPU     40.58s WALL (      21 calls)
 
     dynmat0      :      1.64s CPU      1.89s WALL (       1 calls)
     dynmat_us    :      1.60s CPU      1.81s WALL (       1 calls)
     d2ionq       :      0.01s CPU      0.01s WALL (       1 calls)
     dynmatcc     :      0.03s CPU      0.03s WALL (       1 calls)
 
     dynmat_us    :      1.60s CPU      1.81s WALL (       1 calls)
     addusdynmat  :      0.00s CPU      0.00s WALL (       1 calls)
 
     phqscf       :   3067.36s CPU   4140.07s WALL (       1 calls)
     solve_linter :   3033.97s CPU   4093.64s WALL (      21 calls)
 
     solve_linter :   3033.97s CPU   4093.64s WALL (      21 calls)
     dvqpsi_us    :     17.07s CPU     18.57s WALL (   11424 calls)
     ortho        :     30.31s CPU     32.10s WALL (  113152 calls)
     cgsolve      :   1439.04s CPU   1697.84s WALL (  113152 calls)
     incdrhoscf   :    277.79s CPU    340.31s WALL (  113152 calls)
     addusddens   :      3.55s CPU      4.40s WALL (     229 calls)
     vpsifft      :    350.27s CPU    424.29s WALL (  113152 calls)
     dv_of_drho   :      0.56s CPU      0.59s WALL (     208 calls)
     mix_pot      :     10.15s CPU     52.14s WALL (     208 calls)
     psymdvscf    :      3.78s CPU      3.99s WALL (     208 calls)
     newdq        :      2.85s CPU      2.87s WALL (     208 calls)
     adddvscf     :      3.65s CPU      4.14s WALL (  113152 calls)
     drhodvus     :      3.90s CPU      6.75s WALL (      21 calls)
 
     dvqpsi_us    :     17.07s CPU     18.57s WALL (   11424 calls)
     dvqpsi_us_on :      6.48s CPU      6.91s WALL (   11424 calls)
 
     cgsolve      :   1439.04s CPU   1697.84s WALL (  113152 calls)
     ch_psi       :   1418.94s CPU   1674.97s WALL ( 1551108 calls)
 
     ch_psi       :   1418.94s CPU   1674.97s WALL ( 1551108 calls)
     h_psi        :   1331.42s CPU   1576.18s WALL ( 1569315 calls)
     last         :     64.57s CPU     72.67s WALL ( 1551108 calls)
 
     h_psi        :   1331.42s CPU   1576.18s WALL ( 1569315 calls)
     add_vuspsi   :     15.12s CPU     17.08s WALL ( 1569315 calls)
 
     incdrhoscf   :    277.79s CPU    340.31s WALL (  113152 calls)
     addusdbec    :      3.66s CPU      4.06s WALL (  124576 calls)
 
     drhodvus     :      3.90s CPU      6.75s WALL (      21 calls)
 
      Electron-phonon coupling
     elphel       :    103.16s CPU    148.54s WALL (      21 calls)
     elphsum      :     31.30s CPU     36.57s WALL (       1 calls)
 
      General routines
     calbec       :     87.82s CPU     95.50s WALL ( 3411463 calls)
     fft          :      0.67s CPU      0.91s WALL (    4039 calls)
     ffts         :      0.65s CPU      0.73s WALL (   12325 calls)
     fftw         :   1836.80s CPU   2202.65s WALL (21433322 calls)
     davcio       :     19.49s CPU    587.25s WALL (  606894 calls)
     write_rec    :      0.16s CPU     28.41s WALL (     229 calls)
 
 
     PHONON       :  53m16.84s CPU      1h11m WALL

 
   This run was terminated on:   7:51:42  31Jul2022            

=------------------------------------------------------------------------------=
   JOB DONE.
=------------------------------------------------------------------------------=
