
     Program PHONON v.6.8 starts on  3Aug2022 at  9: 7:50 

     This program is part of the open-source Quantum ESPRESSO suite
     for quantum simulation of materials; please cite
         "P. Giannozzi et al., J. Phys.:Condens. Matter 21 395502 (2009);
         "P. Giannozzi et al., J. Phys.:Condens. Matter 29 465901 (2017);
         "P. Giannozzi et al., J. Chem. Phys. 152 154105 (2020);
          URL http://www.quantum-espresso.org", 
     in publications or presentations arising from this work. More details at
     http://www.quantum-espresso.org/quote

     Parallel version (MPI), running on    48 processors

     MPI processes distributed on     1 nodes
     K-points division:     npool     =       4
     R & G space division:  proc/nbgrp/npool/nimage =      12
     189024 MiB available memory on the printing compute node when the environment starts
 
     Waiting for input...
     Reading input from standard input

     Reading xml data from directory:

     ./tmp/Ca1H6.save/

     IMPORTANT: XC functional enforced from input :
     Exchange-correlation= PBE
                           (   1   4   3   4   0   0   0)
     Any further DFT definition will be discarded
     Please, verify this is what you really want

 
     Parallelization info
     --------------------
     sticks:   dense  smooth     PW     G-vecs:    dense   smooth      PW
     Min         139      46     17                 3602      698     155
     Max         140      47     18                 3604      701     157
     Sum        1669     557    205                43227     8391    1865
 
     Using Slab Decomposition
 
     Reading collected, re-writing distributed wavefunctions


     Dynamical matrices for ( 8, 8, 8)  uniform grid of q-points
     (  29 q-points):
       N         xq(1)         xq(2)         xq(3) 
       1   0.000000000   0.000000000   0.000000000
       2   0.108253175   0.108253175   0.000000000
       3   0.216506351   0.216506351   0.000000000
       4   0.324759526   0.324759526   0.000000000
       5  -0.433012702  -0.433012702   0.000000000
       6   0.216506351   0.108253175   0.108253175
       7   0.324759526   0.216506351   0.108253175
       8   0.433012702   0.324759526   0.108253175
       9   0.433012702   0.216506351   0.216506351
      10   0.541265877   0.324759526   0.216506351
      11   0.216506351   0.216506351   0.216506351
      12   0.324759526   0.324759526   0.216506351
      13   0.433012702   0.433012702   0.216506351
      14  -0.000000000  -0.000000000   0.216506351
      15   0.433012702   0.324759526   0.324759526
      16  -0.000000000  -0.108253175   0.324759526
      17  -0.000000000  -0.216506351   0.433012702
      18   0.108253175  -0.108253175   0.433012702
      19  -0.866025404  -0.324759526  -0.324759526
      20  -0.757772228  -0.216506351  -0.324759526
      21  -0.649519053  -0.216506351  -0.216506351
      22   0.433012702   0.433012702   0.433012702
      23  -0.000000000  -0.000000000   0.433012702
      24  -0.000000000  -0.108253175   0.541265877
      25  -0.866025404  -0.216506351  -0.216506351
      26  -0.757772228  -0.108253175  -0.216506351
      27  -0.000000000  -0.000000000   0.649519053
      28  -0.866025404  -0.108253175  -0.108253175
      29  -0.866025404  -0.866025404  -0.866025404

     Saving dvscf to file. Distribute only q points, not irreducible represetations.

     Calculation of q =    0.0000000   0.0000000   0.0000000

     Electron-phonon coefficients for Ca1H6                                     

     bravais-lattice index     =            0
     lattice parameter (alat)  =       5.5613  a.u.
     unit-cell volume          =     132.4087 (a.u.)^3
     number of atoms/cell      =            7
     number of atomic types    =            2
     kinetic-energy cut-off    =      60.0000  Ry
     charge density cut-off    =     720.0000  Ry
     convergence threshold     =      1.0E-16
     beta                      =       0.7000
     number of iterations used =            4
     Exchange-correlation= PBE
                           (   1   4   3   4   0   0   0)


     celldm(1)=    5.56134  celldm(2)=    0.00000  celldm(3)=    0.00000
     celldm(4)=    0.00000  celldm(5)=    0.00000  celldm(6)=    0.00000

     crystal axes: (cart. coord. in units of alat)
               a(1) = ( -0.5774  0.5774  0.5774 )  
               a(2) = (  0.5774 -0.5774  0.5774 )  
               a(3) = (  0.5774  0.5774 -0.5774 )  

     reciprocal axes: (cart. coord. in units 2 pi/alat)
               b(1) = ( -0.0000  0.8660  0.8660 )  
               b(2) = (  0.8660 -0.0000  0.8660 )  
               b(3) = (  0.8660  0.8660  0.0000 )  


     Atoms inside the unit cell: 

     Cartesian axes

     site n.  atom      mass           positions (alat units)
        1     Ca  40.0780   tau(    1) = (    0.00000    0.00000    0.00000  )
        2     H    1.0079   tau(    2) = (    0.28868    0.00000    0.57735  )
        3     H    1.0079   tau(    3) = (    0.28868    0.57735    0.00000  )
        4     H    1.0079   tau(    4) = (    0.57735    0.28868    0.00000  )
        5     H    1.0079   tau(    5) = (    0.00000    0.28868    0.57735  )
        6     H    1.0079   tau(    6) = (    0.00000    0.57735    0.28868  )
        7     H    1.0079   tau(    7) = (    0.57735    0.00000    0.28868  )

     Computing dynamical matrix for 
                    q = (   0.0000000   0.0000000   0.0000000 )
 
     49 Sym.Ops. (with q -> -q+G )


     G cutoff =  564.0682  (   3604 G-vectors)     FFT grid: ( 48, 48, 48)
     G cutoff =  188.0227  (    699 G-vectors)  smooth grid: ( 27, 27, 27)

     number of k points=   145  Methfessel-Paxton smearing, width (Ry)=  0.0200

     PseudoPot. # 1 for Ca read from file:
     /work/home/mayuan/code/my_script/scripts_tests/out2/200.0/pp/ca_pbe_v1.uspp.F.UPF
     MD5 check sum: 403a4c14b9e4d4dfdc3024c9a3812218
     Pseudo is Ultrasoft + core correction, Zval = 10.0
     Generated by new atomic code, or converted to UPF format
     Using radial grid of  845 points,  6 beta functions with: 
                l(1) =   0
                l(2) =   0
                l(3) =   1
                l(4) =   1
                l(5) =   2
                l(6) =   2
     Q(r) pseudized with  8 coefficients,  rinner =    1.500   1.500   1.500
                                                       1.500   1.500

     PseudoPot. # 2 for H  read from file:
     /work/home/mayuan/code/my_script/scripts_tests/out2/200.0/pp/h_pbe_v1.uspp.F.UPF
     MD5 check sum: 3408e3ff4ec8b0a4e358431e7e038a48
     Pseudo is Ultrasoft, Zval =  1.0
     Generated by new atomic code, or converted to UPF format
     Using radial grid of  615 points,  2 beta functions with: 
                l(1) =   0
                l(2) =   0
     Q(r) pseudized with  8 coefficients,  rinner =    0.700

     Mode symmetry, O_h (m-3m)  point group:


     Atomic displacements:
     There are    8 irreducible representations

     Representation     1      1 modes -  To be done

     Representation     2      2 modes -  To be done

     Representation     3      3 modes -  To be done

     Representation     4      3 modes -  To be done

     Representation     5      3 modes -  To be done

     Representation     6      3 modes -  To be done

     Representation     7      3 modes -  To be done

     Representation     8      3 modes -  To be done



     Alpha used in Ewald sum =   2.8000
     PHONON       :      1.77s CPU     11.46s WALL



     Representation #   1 mode #   1

     Self-consistent Calculation
 
     Pert. #  1: Fermi energy shift (Ry) =    -5.4210E-20    -3.7368E-44

      iter #   1 total cpu time :    13.2 secs   av.it.:   2.0
      thresh= 1.000E-02 alpha_mix =  0.700 |ddv_scf|^2 =  3.877E-09
 
     Pert. #  1: Fermi energy shift (Ry) =    -5.4210E-20     1.8684E-45

      iter #   2 total cpu time :    15.7 secs   av.it.:   7.0
      thresh= 6.227E-06 alpha_mix =  0.700 |ddv_scf|^2 =  3.738E-10
 
     Pert. #  1: Fermi energy shift (Ry) =     1.8070E-20     4.7831E-43

      iter #   3 total cpu time :    16.8 secs   av.it.:   5.3
      thresh= 1.933E-06 alpha_mix =  0.700 |ddv_scf|^2 =  1.462E-13
 
     Pert. #  1: Fermi energy shift (Ry) =     3.6140E-20     7.1746E-43

      iter #   4 total cpu time :    17.9 secs   av.it.:   6.3
      thresh= 3.823E-08 alpha_mix =  0.700 |ddv_scf|^2 =  5.567E-16
 
     Pert. #  1: Fermi energy shift (Ry) =     7.2280E-20     4.7831E-43

      iter #   5 total cpu time :    19.8 secs   av.it.:   5.5
      thresh= 2.360E-09 alpha_mix =  0.700 |ddv_scf|^2 =  3.413E-18

     End of self-consistent calculation

     Convergence has been achieved 


     Representation #   2 modes #   2   3

     Self-consistent Calculation
 
     Pert. #  1: Fermi energy shift (Ry) =    -3.8489E-18    -4.2091E-41
     Pert. #  2: Fermi energy shift (Ry) =    -1.5179E-18     1.1479E-41

      iter #   1 total cpu time :    21.8 secs   av.it.:   3.8
      thresh= 1.000E-02 alpha_mix =  0.700 |ddv_scf|^2 =  4.178E-08
 
     Pert. #  1: Fermi energy shift (Ry) =    -6.2161E-18    -5.3571E-41
     Pert. #  2: Fermi energy shift (Ry) =    -6.3245E-20     6.6963E-42

      iter #   2 total cpu time :    23.6 secs   av.it.:   8.8
      thresh= 2.044E-05 alpha_mix =  0.700 |ddv_scf|^2 =  4.103E-10
 
     Pert. #  1: Fermi energy shift (Ry) =    -1.1836E-18    -2.6785E-41
     Pert. #  2: Fermi energy shift (Ry) =    -9.0350E-21     1.6263E-41

      iter #   3 total cpu time :    25.3 secs   av.it.:   9.1
      thresh= 2.025E-06 alpha_mix =  0.700 |ddv_scf|^2 =  1.778E-11
 
     Pert. #  1: Fermi energy shift (Ry) =    -1.7347E-18    -1.9132E-42
     Pert. #  2: Fermi energy shift (Ry) =     2.2723E-18     8.6096E-42

      iter #   4 total cpu time :    27.7 secs   av.it.:   8.9
      thresh= 4.217E-07 alpha_mix =  0.700 |ddv_scf|^2 =  8.383E-14
 
     Pert. #  1: Fermi energy shift (Ry) =    -4.0115E-18    -1.9132E-42
     Pert. #  2: Fermi energy shift (Ry) =     1.9651E-18     8.6096E-42

      iter #   5 total cpu time :    30.4 secs   av.it.:   8.8
      thresh= 2.895E-08 alpha_mix =  0.700 |ddv_scf|^2 =  4.031E-16
 
     Pert. #  1: Fermi energy shift (Ry) =    -1.7528E-18    -1.9132E-42
     Pert. #  2: Fermi energy shift (Ry) =     3.3881E-19     8.6096E-42

      iter #   6 total cpu time :    33.2 secs   av.it.:   9.2
      thresh= 2.008E-09 alpha_mix =  0.700 |ddv_scf|^2 =  4.620E-18

     End of self-consistent calculation

     Convergence has been achieved 


     Representation #   3 modes #   4   5   6

     Self-consistent Calculation
 
     Pert. #  1: Fermi energy shift (Ry) =     1.0164E-19     2.9387E-39
     Pert. #  2: Fermi energy shift (Ry) =     1.3553E-20     1.0041E-38
     Pert. #  3: Fermi energy shift (Ry) =    -1.0419E-19    -1.5918E-39

      iter #   1 total cpu time :    35.8 secs   av.it.:   2.9
      thresh= 1.000E-02 alpha_mix =  0.700 |ddv_scf|^2 =  4.652E-10
 
     Pert. #  1: Fermi energy shift (Ry) =    -2.0329E-20     1.0523E-41
     Pert. #  2: Fermi energy shift (Ry) =     1.1746E-19    -1.9132E-42
     Pert. #  3: Fermi energy shift (Ry) =     2.6540E-20    -1.2197E-41

      iter #   2 total cpu time :    38.4 secs   av.it.:   9.3
      thresh= 2.157E-06 alpha_mix =  0.700 |ddv_scf|^2 =  4.418E-11
 
     Pert. #  1: Fermi energy shift (Ry) =    -5.4210E-20    -9.5662E-43
     Pert. #  2: Fermi energy shift (Ry) =     1.6715E-19    -2.3915E-43
     Pert. #  3: Fermi energy shift (Ry) =     7.3410E-20    -1.4050E-42

      iter #   3 total cpu time :    42.1 secs   av.it.:   8.0
      thresh= 6.646E-07 alpha_mix =  0.700 |ddv_scf|^2 =  2.008E-14
 
     Pert. #  1: Fermi energy shift (Ry) =    -2.0329E-20     2.8699E-42
     Pert. #  2: Fermi energy shift (Ry) =     2.2588E-20     4.7831E-43
     Pert. #  3: Fermi energy shift (Ry) =    -4.5175E-21    -2.5709E-42

      iter #   4 total cpu time :    46.2 secs   av.it.:   8.8
      thresh= 1.417E-08 alpha_mix =  0.700 |ddv_scf|^2 =  9.135E-17

     End of self-consistent calculation

     Convergence has been achieved 


     Representation #   4 modes #   7   8   9

     Self-consistent Calculation
 
     Pert. #  1: Fermi energy shift (Ry) =     8.6736E-18    -3.8265E-42
     Pert. #  2: Fermi energy shift (Ry) =     1.0697E-17    -1.4349E-42
     Pert. #  3: Fermi energy shift (Ry) =    -2.0238E-18     1.1001E-41

      iter #   1 total cpu time :    49.0 secs   av.it.:   4.0
      thresh= 1.000E-02 alpha_mix =  0.700 |ddv_scf|^2 =  1.232E-08
 
     Pert. #  1: Fermi energy shift (Ry) =     4.6259E-18    -3.5873E-42
     Pert. #  2: Fermi energy shift (Ry) =     4.9150E-18    -3.8265E-42
     Pert. #  3: Fermi energy shift (Ry) =     1.4022E-17     1.9372E-41

      iter #   2 total cpu time :    51.9 secs   av.it.:   9.9
      thresh= 1.110E-05 alpha_mix =  0.700 |ddv_scf|^2 =  6.220E-11
 
     Pert. #  1: Fermi energy shift (Ry) =     5.7824E-19    -3.5873E-42
     Pert. #  2: Fermi energy shift (Ry) =     2.1684E-18    -3.8265E-42
     Pert. #  3: Fermi energy shift (Ry) =     6.9389E-18     1.9372E-41

      iter #   3 total cpu time :    54.7 secs   av.it.:   9.7
      thresh= 7.887E-07 alpha_mix =  0.700 |ddv_scf|^2 =  4.223E-12
 
     Pert. #  1: Fermi energy shift (Ry) =     4.0477E-18    -1.6741E-42
     Pert. #  2: Fermi energy shift (Ry) =     2.1684E-18    -5.8593E-42
     Pert. #  3: Fermi energy shift (Ry) =     3.1803E-18     9.5662E-43

      iter #   4 total cpu time :    57.6 secs   av.it.:   9.6
      thresh= 2.055E-07 alpha_mix =  0.700 |ddv_scf|^2 =  1.422E-14
 
     Pert. #  1: Fermi energy shift (Ry) =     5.7824E-19    -1.6741E-42
     Pert. #  2: Fermi energy shift (Ry) =     6.6498E-18    -5.8593E-42
     Pert. #  3: Fermi energy shift (Ry) =     2.4575E-18     9.5662E-43

      iter #   5 total cpu time :    60.3 secs   av.it.:  10.2
      thresh= 1.193E-08 alpha_mix =  0.700 |ddv_scf|^2 =  6.043E-17

     End of self-consistent calculation

     Convergence has been achieved 


     Representation #   5 modes #  10  11  12

     Self-consistent Calculation
 
     Pert. #  1: Fermi energy shift (Ry) =    -1.7233E-26     1.2539E-36
     Pert. #  2: Fermi energy shift (Ry) =    -5.6007E-26     2.5469E-36
     Pert. #  3: Fermi energy shift (Ry) =     3.8774E-25     2.0062E-36

      iter #   1 total cpu time :    63.4 secs   av.it.:   3.1
      thresh= 1.000E-02 alpha_mix =  0.700 |ddv_scf|^2 =  7.358E-10
 
     Pert. #  1: Fermi energy shift (Ry) =     4.5236E-26     1.8367E-40
     Pert. #  2: Fermi energy shift (Ry) =    -6.0585E-26    -4.2857E-40
     Pert. #  3: Fermi energy shift (Ry) =     9.3166E-26    -4.2857E-40

      iter #   2 total cpu time :    66.0 secs   av.it.:   9.9
      thresh= 2.712E-06 alpha_mix =  0.700 |ddv_scf|^2 =  5.503E-11
 
     Pert. #  1: Fermi energy shift (Ry) =    -9.3166E-26    -3.0612E-41
     Pert. #  2: Fermi energy shift (Ry) =    -2.5311E-26     8.4900E-41
     Pert. #  3: Fermi energy shift (Ry) =     3.0965E-25    -1.2245E-40

      iter #   3 total cpu time :    68.7 secs   av.it.:   9.8
      thresh= 7.419E-07 alpha_mix =  0.700 |ddv_scf|^2 =  7.330E-13
 
     Pert. #  1: Fermi energy shift (Ry) =     6.5701E-26    -9.5662E-43
     Pert. #  2: Fermi energy shift (Ry) =    -7.5394E-27     1.1766E-40
     Pert. #  3: Fermi energy shift (Ry) =    -2.6926E-27     1.0714E-40

      iter #   4 total cpu time :    72.2 secs   av.it.:  10.1
      thresh= 8.562E-08 alpha_mix =  0.700 |ddv_scf|^2 =  3.346E-14
 
     Pert. #  1: Fermi energy shift (Ry) =     3.6620E-26     1.9132E-41
     Pert. #  2: Fermi energy shift (Ry) =     6.4085E-26     1.0140E-40
     Pert. #  3: Fermi energy shift (Ry) =    -2.0572E-25     8.0356E-41

      iter #   5 total cpu time :    74.7 secs   av.it.:  10.0
      thresh= 1.829E-08 alpha_mix =  0.700 |ddv_scf|^2 =  2.764E-16
 
     Pert. #  1: Fermi energy shift (Ry) =    -6.1392E-26    -4.9744E-41
     Pert. #  2: Fermi energy shift (Ry) =     9.8012E-26     3.6352E-41
     Pert. #  3: Fermi energy shift (Ry) =     9.5858E-26    -8.8009E-41

      iter #   6 total cpu time :    77.5 secs   av.it.:  10.1
      thresh= 1.662E-09 alpha_mix =  0.700 |ddv_scf|^2 =  4.042E-18

     End of self-consistent calculation

     Convergence has been achieved 


     Representation #   6 modes #  13  14  15

     Self-consistent Calculation
 
     Pert. #  1: Fermi energy shift (Ry) =    -3.6189E-25     9.6391E-37
     Pert. #  2: Fermi energy shift (Ry) =     3.9636E-25     4.9214E-36
     Pert. #  3: Fermi energy shift (Ry) =     6.8932E-26     1.5673E-37

      iter #   1 total cpu time :    81.3 secs   av.it.:   4.0
      thresh= 1.000E-02 alpha_mix =  0.700 |ddv_scf|^2 =  7.913E-09
 
     Pert. #  1: Fermi energy shift (Ry) =     8.1856E-26    -8.2996E-39
     Pert. #  2: Fermi energy shift (Ry) =     3.3604E-25     7.9591E-40
     Pert. #  3: Fermi energy shift (Ry) =     3.4466E-26    -4.1479E-39

      iter #   2 total cpu time :    83.9 secs   av.it.:  10.3
      thresh= 8.896E-06 alpha_mix =  0.700 |ddv_scf|^2 =  3.654E-10
 
     Pert. #  1: Fermi energy shift (Ry) =    -2.1541E-27    -4.3526E-40
     Pert. #  2: Fermi energy shift (Ry) =    -1.2063E-25    -3.6734E-40
     Pert. #  3: Fermi energy shift (Ry) =     2.0680E-25     1.9132E-41

      iter #   3 total cpu time :    86.8 secs   av.it.:  10.5
      thresh= 1.912E-06 alpha_mix =  0.700 |ddv_scf|^2 =  2.907E-11
 
     Pert. #  1: Fermi energy shift (Ry) =     1.0771E-25    -1.8654E-41
     Pert. #  2: Fermi energy shift (Ry) =     1.8095E-25    -5.3571E-41
     Pert. #  3: Fermi energy shift (Ry) =     1.7233E-25     9.5662E-42

      iter #   4 total cpu time :    92.0 secs   av.it.:  10.3
      thresh= 5.392E-07 alpha_mix =  0.700 |ddv_scf|^2 =  2.966E-13
 
     Pert. #  1: Fermi energy shift (Ry) =    -2.6280E-25     2.0950E-40
     Pert. #  2: Fermi energy shift (Ry) =    -3.4466E-26     1.5689E-40
     Pert. #  3: Fermi energy shift (Ry) =     6.8932E-26     3.4821E-40

      iter #   5 total cpu time :    95.1 secs   av.it.:   9.8
      thresh= 5.446E-08 alpha_mix =  0.700 |ddv_scf|^2 =  4.428E-16
 
     Pert. #  1: Fermi energy shift (Ry) =     7.7548E-26     1.0987E-39
     Pert. #  2: Fermi energy shift (Ry) =     4.2221E-25     1.7602E-40
     Pert. #  3: Fermi energy shift (Ry) =     0.0000E+00     1.6645E-40

      iter #   6 total cpu time :    97.8 secs   av.it.:  10.0
      thresh= 2.104E-09 alpha_mix =  0.700 |ddv_scf|^2 =  8.555E-18

     End of self-consistent calculation

     Convergence has been achieved 


     Representation #   7 modes #  16  17  18

     Self-consistent Calculation
 
     Pert. #  1: Fermi energy shift (Ry) =     1.1029E-24     8.0247E-36
     Pert. #  2: Fermi energy shift (Ry) =    -1.1718E-24    -1.0031E-36
     Pert. #  3: Fermi energy shift (Ry) =    -1.4820E-24    -1.1034E-35

      iter #   1 total cpu time :   102.3 secs   av.it.:   6.3
      thresh= 1.000E-02 alpha_mix =  0.700 |ddv_scf|^2 =  9.166E-07
 
     Pert. #  1: Fermi energy shift (Ry) =    -1.0340E-25    -3.1347E-38
     Pert. #  2: Fermi energy shift (Ry) =     1.8956E-25     2.7428E-38
     Pert. #  3: Fermi energy shift (Ry) =    -1.1632E-25     7.0530E-38

      iter #   2 total cpu time :   105.0 secs   av.it.:  10.6
      thresh= 9.574E-05 alpha_mix =  0.700 |ddv_scf|^2 =  8.114E-08
 
     Pert. #  1: Fermi energy shift (Ry) =    -3.4466E-26    -3.1347E-38
     Pert. #  2: Fermi energy shift (Ry) =     0.0000E+00    -2.9387E-39
     Pert. #  3: Fermi energy shift (Ry) =    -3.7051E-25     7.8366E-39

      iter #   3 total cpu time :   107.8 secs   av.it.:  10.5
      thresh= 2.849E-05 alpha_mix =  0.700 |ddv_scf|^2 =  3.839E-10
 
     Pert. #  1: Fermi energy shift (Ry) =     3.4466E-26    -1.7602E-40
     Pert. #  2: Fermi energy shift (Ry) =    -1.3786E-25    -3.2142E-40
     Pert. #  3: Fermi energy shift (Ry) =    -3.4466E-26    -6.4285E-40

      iter #   4 total cpu time :   110.4 secs   av.it.:  10.1
      thresh= 1.959E-06 alpha_mix =  0.700 |ddv_scf|^2 =  1.410E-12
 
     Pert. #  1: Fermi energy shift (Ry) =     2.0680E-25     4.8979E-40
     Pert. #  2: Fermi energy shift (Ry) =     2.9296E-25    -4.2857E-40
     Pert. #  3: Fermi energy shift (Ry) =    -2.4988E-25    -1.1020E-39

      iter #   5 total cpu time :   113.0 secs   av.it.:  10.1
      thresh= 1.188E-07 alpha_mix =  0.700 |ddv_scf|^2 =  9.796E-15
 
     Pert. #  1: Fermi energy shift (Ry) =    -3.7912E-25     0.0000E+00
     Pert. #  2: Fermi energy shift (Ry) =     1.3786E-25    -1.2245E-40
     Pert. #  3: Fermi energy shift (Ry) =    -6.0315E-26     4.2857E-40

      iter #   6 total cpu time :   115.5 secs   av.it.:   9.8
      thresh= 9.898E-09 alpha_mix =  0.700 |ddv_scf|^2 =  2.501E-16
 
     Pert. #  1: Fermi energy shift (Ry) =    -1.0340E-25     0.0000E+00
     Pert. #  2: Fermi energy shift (Ry) =     0.0000E+00    -1.2245E-40
     Pert. #  3: Fermi energy shift (Ry) =     5.1699E-26     4.2857E-40

      iter #   7 total cpu time :   119.3 secs   av.it.:  10.2
      thresh= 1.582E-09 alpha_mix =  0.700 |ddv_scf|^2 =  1.463E-18

     End of self-consistent calculation

     Convergence has been achieved 


     Representation #   8 modes #  19  20  21

     Self-consistent Calculation
 
     Pert. #  1: Fermi energy shift (Ry) =    -4.4116E-24     7.5232E-37
     Pert. #  2: Fermi energy shift (Ry) =     4.7563E-24    -1.0156E-35
     Pert. #  3: Fermi energy shift (Ry) =    -8.8233E-24    -1.0031E-36

      iter #   1 total cpu time :   125.8 secs   av.it.:   3.4
      thresh= 1.000E-02 alpha_mix =  0.700 |ddv_scf|^2 =  6.892E-09
 
     Pert. #  1: Fermi energy shift (Ry) =    -5.3422E-25    -1.9592E-39
     Pert. #  2: Fermi energy shift (Ry) =     3.9690E-25     4.1938E-39
     Pert. #  3: Fermi energy shift (Ry) =     1.8095E-25     9.0611E-39

      iter #   2 total cpu time :   128.3 secs   av.it.:   9.6
      thresh= 8.302E-06 alpha_mix =  0.700 |ddv_scf|^2 =  2.111E-10
 
     Pert. #  1: Fermi energy shift (Ry) =    -1.5725E-25     1.3010E-39
     Pert. #  2: Fermi energy shift (Ry) =    -6.0154E-25     1.7344E-39
     Pert. #  3: Fermi energy shift (Ry) =    -1.9387E-26     9.9488E-41

      iter #   3 total cpu time :   130.7 secs   av.it.:   9.8
      thresh= 1.453E-06 alpha_mix =  0.700 |ddv_scf|^2 =  7.712E-12
 
     Pert. #  1: Fermi energy shift (Ry) =     4.2867E-25     7.6530E-41
     Pert. #  2: Fermi energy shift (Ry) =    -1.5483E-26     8.5139E-41
     Pert. #  3: Fermi energy shift (Ry) =    -7.4317E-26     7.6530E-41

      iter #   4 total cpu time :   133.4 secs   av.it.:   9.2
      thresh= 2.777E-07 alpha_mix =  0.700 |ddv_scf|^2 =  4.376E-15
 
     Pert. #  1: Fermi energy shift (Ry) =    -2.7573E-25     1.3775E-40
     Pert. #  2: Fermi energy shift (Ry) =     5.2332E-25     1.0905E-40
     Pert. #  3: Fermi energy shift (Ry) =     3.7266E-25    -8.0356E-40

      iter #   5 total cpu time :   136.3 secs   av.it.:   9.6
      thresh= 6.615E-09 alpha_mix =  0.700 |ddv_scf|^2 =  7.958E-17

     End of self-consistent calculation

     Convergence has been achieved 
 
     Number of q in the star =    1
     List of q in the star:
          1   0.000000000   0.000000000   0.000000000

     Diagonalizing the dynamical matrix

     q = (    0.000000000   0.000000000   0.000000000 ) 

 **************************************************************************
     freq (    1) =      -0.013710 [THz] =      -0.457307 [cm-1]
     freq (    2) =      -0.013710 [THz] =      -0.457307 [cm-1]
     freq (    3) =      -0.013710 [THz] =      -0.457307 [cm-1]
     freq (    4) =      30.791785 [THz] =    1027.103393 [cm-1]
     freq (    5) =      30.791785 [THz] =    1027.103393 [cm-1]
     freq (    6) =      30.791785 [THz] =    1027.103393 [cm-1]
     freq (    7) =      34.192788 [THz] =    1140.548629 [cm-1]
     freq (    8) =      34.192788 [THz] =    1140.548629 [cm-1]
     freq (    9) =      34.192788 [THz] =    1140.548629 [cm-1]
     freq (   10) =      40.985655 [THz] =    1367.134282 [cm-1]
     freq (   11) =      40.985655 [THz] =    1367.134282 [cm-1]
     freq (   12) =      40.985655 [THz] =    1367.134282 [cm-1]
     freq (   13) =      44.325222 [THz] =    1478.530256 [cm-1]
     freq (   14) =      44.325222 [THz] =    1478.530256 [cm-1]
     freq (   15) =      44.325222 [THz] =    1478.530256 [cm-1]
     freq (   16) =      45.937361 [THz] =    1532.305439 [cm-1]
     freq (   17) =      50.097420 [THz] =    1671.070047 [cm-1]
     freq (   18) =      50.097420 [THz] =    1671.070047 [cm-1]
     freq (   19) =      50.097420 [THz] =    1671.070047 [cm-1]
     freq (   20) =      63.447280 [THz] =    2116.373466 [cm-1]
     freq (   21) =      63.447280 [THz] =    2116.373466 [cm-1]
 **************************************************************************

     Mode symmetry, O_h (m-3m)  point group:

     freq (   1-   3) =         -0.5  [cm-1]   --> T_1u G_15  G_4- I  
     freq (   4-   6) =       1027.1  [cm-1]   --> T_1u G_15  G_4- I  
     freq (   7-   9) =       1140.5  [cm-1]   --> T_2g G_25' G_5+ R  
     freq (  10-  12) =       1367.1  [cm-1]   --> T_1u G_15  G_4- I  
     freq (  13-  15) =       1478.5  [cm-1]   --> T_1g G_15' G_4+    
     freq (  16-  16) =       1532.3  [cm-1]   --> A_2g G_2   G_2+    
     freq (  17-  19) =       1671.1  [cm-1]   --> T_2u G_25  G_5-    
     freq (  20-  21) =       2116.4  [cm-1]   --> E_g  G_12  G_3+ R  
     electron-phonon interaction  ...

     Gaussian Broadening:   0.005 Ry, ngauss=   0
     DOS =  1.900675 states/spin/Ry/Unit Cell at Ef= 17.155196 eV
     lambda(    1)=  0.0000   gamma=    0.00 GHz
     lambda(    2)=  0.0000   gamma=    0.00 GHz
     lambda(    3)=  0.0000   gamma=    0.00 GHz
     lambda(    4)=  0.0003   gamma=    0.55 GHz
     lambda(    5)=  0.0004   gamma=    0.66 GHz
     lambda(    6)=  0.0004   gamma=    0.67 GHz
     lambda(    7)= 11.7829   gamma=25003.59 GHz
     lambda(    8)= 11.7772   gamma=24991.55 GHz
     lambda(    9)= 11.8810   gamma=25211.87 GHz
     lambda(   10)=  0.0000   gamma=    0.07 GHz
     lambda(   11)=  0.0000   gamma=    0.10 GHz
     lambda(   12)=  0.0000   gamma=    0.07 GHz
     lambda(   13)=  0.0468   gamma=  166.75 GHz
     lambda(   14)=  0.0394   gamma=  140.45 GHz
     lambda(   15)=  0.0478   gamma=  170.30 GHz
     lambda(   16)=  0.0033   gamma=   12.75 GHz
     lambda(   17)=  0.0001   gamma=    0.49 GHz
     lambda(   18)=  0.0001   gamma=    0.65 GHz
     lambda(   19)=  0.0001   gamma=    0.55 GHz
     lambda(   20)=  1.1333   gamma= 8280.40 GHz
     lambda(   21)=  1.0643   gamma= 7776.04 GHz
     Gaussian Broadening:   0.010 Ry, ngauss=   0
     DOS =  2.130656 states/spin/Ry/Unit Cell at Ef= 17.149400 eV
     lambda(    1)=  0.0000   gamma=    0.00 GHz
     lambda(    2)=  0.0000   gamma=    0.00 GHz
     lambda(    3)=  0.0000   gamma=    0.00 GHz
     lambda(    4)=  0.0042   gamma=    8.08 GHz
     lambda(    5)=  0.0050   gamma=    9.65 GHz
     lambda(    6)=  0.0051   gamma=    9.87 GHz
     lambda(    7)=  5.5242   gamma=13140.92 GHz
     lambda(    8)=  5.5471   gamma=13195.32 GHz
     lambda(    9)=  5.5418   gamma=13182.87 GHz
     lambda(   10)=  0.0003   gamma=    1.01 GHz
     lambda(   11)=  0.0004   gamma=    1.46 GHz
     lambda(   12)=  0.0003   gamma=    1.10 GHz
     lambda(   13)=  0.0301   gamma=  120.33 GHz
     lambda(   14)=  0.0258   gamma=  103.16 GHz
     lambda(   15)=  0.0307   gamma=  122.65 GHz
     lambda(   16)=  0.0012   gamma=    5.36 GHz
     lambda(   17)=  0.0008   gamma=    4.24 GHz
     lambda(   18)=  0.0011   gamma=    5.81 GHz
     lambda(   19)=  0.0010   gamma=    4.86 GHz
     lambda(   20)=  0.5615   gamma= 4599.03 GHz
     lambda(   21)=  0.5433   gamma= 4450.09 GHz
     Gaussian Broadening:   0.015 Ry, ngauss=   0
     DOS =  2.235086 states/spin/Ry/Unit Cell at Ef= 17.146382 eV
     lambda(    1)=  0.0000   gamma=    0.00 GHz
     lambda(    2)=  0.0000   gamma=    0.00 GHz
     lambda(    3)=  0.0000   gamma=    0.00 GHz
     lambda(    4)=  0.0037   gamma=    7.56 GHz
     lambda(    5)=  0.0045   gamma=    9.02 GHz
     lambda(    6)=  0.0046   gamma=    9.22 GHz
     lambda(    7)=  3.8080   gamma= 9502.52 GHz
     lambda(    8)=  3.8253   gamma= 9545.63 GHz
     lambda(    9)=  3.8169   gamma= 9524.75 GHz
     lambda(   10)=  0.0003   gamma=    0.94 GHz
     lambda(   11)=  0.0004   gamma=    1.37 GHz
     lambda(   12)=  0.0003   gamma=    1.03 GHz
     lambda(   13)=  0.0224   gamma=   93.86 GHz
     lambda(   14)=  0.0198   gamma=   83.02 GHz
     lambda(   15)=  0.0227   gamma=   95.32 GHz
     lambda(   16)=  0.0008   gamma=    3.50 GHz
     lambda(   17)=  0.0007   gamma=    3.96 GHz
     lambda(   18)=  0.0010   gamma=    5.41 GHz
     lambda(   19)=  0.0008   gamma=    4.53 GHz
     lambda(   20)=  0.3758   gamma= 3229.14 GHz
     lambda(   21)=  0.3685   gamma= 3166.28 GHz
     Gaussian Broadening:   0.020 Ry, ngauss=   0
     DOS =  2.290454 states/spin/Ry/Unit Cell at Ef= 17.145317 eV
     lambda(    1)=  0.0000   gamma=    0.01 GHz
     lambda(    2)=  0.0000   gamma=    0.01 GHz
     lambda(    3)=  0.0000   gamma=    0.01 GHz
     lambda(    4)=  0.0028   gamma=    5.87 GHz
     lambda(    5)=  0.0034   gamma=    6.96 GHz
     lambda(    6)=  0.0034   gamma=    7.10 GHz
     lambda(    7)=  2.8943   gamma= 7401.35 GHz
     lambda(    8)=  2.9079   gamma= 7436.12 GHz
     lambda(    9)=  2.8993   gamma= 7414.08 GHz
     lambda(   10)=  0.0002   gamma=    0.73 GHz
     lambda(   11)=  0.0003   gamma=    1.04 GHz
     lambda(   12)=  0.0002   gamma=    0.79 GHz
     lambda(   13)=  0.0173   gamma=   74.13 GHz
     lambda(   14)=  0.0156   gamma=   66.93 GHz
     lambda(   15)=  0.0175   gamma=   75.10 GHz
     lambda(   16)=  0.0006   gamma=    2.60 GHz
     lambda(   17)=  0.0006   gamma=    3.12 GHz
     lambda(   18)=  0.0008   gamma=    4.22 GHz
     lambda(   19)=  0.0006   gamma=    3.56 GHz
     lambda(   20)=  0.2718   gamma= 2392.87 GHz
     lambda(   21)=  0.2678   gamma= 2357.69 GHz
     Gaussian Broadening:   0.025 Ry, ngauss=   0
     DOS =  2.332190 states/spin/Ry/Unit Cell at Ef= 17.144758 eV
     lambda(    1)=  0.0000   gamma=    0.01 GHz
     lambda(    2)=  0.0000   gamma=    0.01 GHz
     lambda(    3)=  0.0000   gamma=    0.02 GHz
     lambda(    4)=  0.0025   gamma=    5.29 GHz
     lambda(    5)=  0.0029   gamma=    6.13 GHz
     lambda(    6)=  0.0030   gamma=    6.24 GHz
     lambda(    7)=  2.3256   gamma= 6055.41 GHz
     lambda(    8)=  2.3367   gamma= 6084.26 GHz
     lambda(    9)=  2.3277   gamma= 6060.95 GHz
     lambda(   10)=  0.0002   gamma=    0.65 GHz
     lambda(   11)=  0.0002   gamma=    0.89 GHz
     lambda(   12)=  0.0002   gamma=    0.70 GHz
     lambda(   13)=  0.0144   gamma=   63.00 GHz
     lambda(   14)=  0.0132   gamma=   57.86 GHz
     lambda(   15)=  0.0146   gamma=   63.69 GHz
     lambda(   16)=  0.0004   gamma=    2.08 GHz
     lambda(   17)=  0.0005   gamma=    2.87 GHz
     lambda(   18)=  0.0007   gamma=    3.75 GHz
     lambda(   19)=  0.0006   gamma=    3.22 GHz
     lambda(   20)=  0.2120   gamma= 1900.22 GHz
     lambda(   21)=  0.2095   gamma= 1878.51 GHz
     Gaussian Broadening:   0.030 Ry, ngauss=   0
     DOS =  2.360595 states/spin/Ry/Unit Cell at Ef= 17.144134 eV
     lambda(    1)=  0.0000   gamma=    0.02 GHz
     lambda(    2)=  0.0000   gamma=    0.02 GHz
     lambda(    3)=  0.0000   gamma=    0.03 GHz
     lambda(    4)=  0.0026   gamma=    5.47 GHz
     lambda(    5)=  0.0029   gamma=    6.16 GHz
     lambda(    6)=  0.0029   gamma=    6.25 GHz
     lambda(    7)=  1.9490   gamma= 5136.53 GHz
     lambda(    8)=  1.9582   gamma= 5160.91 GHz
     lambda(    9)=  1.9494   gamma= 5137.76 GHz
     lambda(   10)=  0.0002   gamma=    0.66 GHz
     lambda(   11)=  0.0002   gamma=    0.85 GHz
     lambda(   12)=  0.0002   gamma=    0.70 GHz
     lambda(   13)=  0.0128   gamma=   56.54 GHz
     lambda(   14)=  0.0119   gamma=   52.64 GHz
     lambda(   15)=  0.0129   gamma=   57.06 GHz
     lambda(   16)=  0.0004   gamma=    1.75 GHz
     lambda(   17)=  0.0005   gamma=    2.96 GHz
     lambda(   18)=  0.0007   gamma=    3.72 GHz
     lambda(   19)=  0.0006   gamma=    3.26 GHz
     lambda(   20)=  0.1759   gamma= 1596.19 GHz
     lambda(   21)=  0.1744   gamma= 1582.51 GHz
     Gaussian Broadening:   0.035 Ry, ngauss=   0
     DOS =  2.381114 states/spin/Ry/Unit Cell at Ef= 17.143351 eV
     lambda(    1)=  0.0000   gamma=    0.03 GHz
     lambda(    2)=  0.0000   gamma=    0.03 GHz
     lambda(    3)=  0.0000   gamma=    0.04 GHz
     lambda(    4)=  0.0029   gamma=    6.19 GHz
     lambda(    5)=  0.0032   gamma=    6.85 GHz
     lambda(    6)=  0.0032   gamma=    6.92 GHz
     lambda(    7)=  1.6803   gamma= 4466.86 GHz
     lambda(    8)=  1.6881   gamma= 4487.69 GHz
     lambda(    9)=  1.6798   gamma= 4465.72 GHz
     lambda(   10)=  0.0002   gamma=    0.74 GHz
     lambda(   11)=  0.0002   gamma=    0.91 GHz
     lambda(   12)=  0.0002   gamma=    0.78 GHz
     lambda(   13)=  0.0117   gamma=   52.18 GHz
     lambda(   14)=  0.0110   gamma=   49.09 GHz
     lambda(   15)=  0.0118   gamma=   52.60 GHz
     lambda(   16)=  0.0003   gamma=    1.52 GHz
     lambda(   17)=  0.0006   gamma=    3.20 GHz
     lambda(   18)=  0.0007   gamma=    3.88 GHz
     lambda(   19)=  0.0006   gamma=    3.46 GHz
     lambda(   20)=  0.1518   gamma= 1389.83 GHz
     lambda(   21)=  0.1509   gamma= 1381.15 GHz
     Gaussian Broadening:   0.040 Ry, ngauss=   0
     DOS =  2.398900 states/spin/Ry/Unit Cell at Ef= 17.142416 eV
     lambda(    1)=  0.0000   gamma=    0.05 GHz
     lambda(    2)=  0.0000   gamma=    0.04 GHz
     lambda(    3)=  0.0000   gamma=    0.06 GHz
     lambda(    4)=  0.0036   gamma=    7.86 GHz
     lambda(    5)=  0.0040   gamma=    8.63 GHz
     lambda(    6)=  0.0040   gamma=    8.69 GHz
     lambda(    7)=  1.4769   gamma= 3955.66 GHz
     lambda(    8)=  1.4836   gamma= 3973.57 GHz
     lambda(    9)=  1.4760   gamma= 3953.16 GHz
     lambda(   10)=  0.0002   gamma=    0.94 GHz
     lambda(   11)=  0.0003   gamma=    1.13 GHz
     lambda(   12)=  0.0003   gamma=    1.00 GHz
     lambda(   13)=  0.0109   gamma=   49.03 GHz
     lambda(   14)=  0.0103   gamma=   46.52 GHz
     lambda(   15)=  0.0110   gamma=   49.39 GHz
     lambda(   16)=  0.0003   gamma=    1.35 GHz
     lambda(   17)=  0.0006   gamma=    3.57 GHz
     lambda(   18)=  0.0007   gamma=    4.21 GHz
     lambda(   19)=  0.0007   gamma=    3.81 GHz
     lambda(   20)=  0.1344   gamma= 1239.27 GHz
     lambda(   21)=  0.1338   gamma= 1233.71 GHz
     Gaussian Broadening:   0.045 Ry, ngauss=   0
     DOS =  2.416850 states/spin/Ry/Unit Cell at Ef= 17.141341 eV
     lambda(    1)=  0.0000   gamma=    0.08 GHz
     lambda(    2)=  0.0000   gamma=    0.07 GHz
     lambda(    3)=  0.0000   gamma=    0.09 GHz
     lambda(    4)=  0.0050   gamma=   10.98 GHz
     lambda(    5)=  0.0055   gamma=   12.08 GHz
     lambda(    6)=  0.0055   gamma=   12.10 GHz
     lambda(    7)=  1.3170   gamma= 3553.55 GHz
     lambda(    8)=  1.3227   gamma= 3569.04 GHz
     lambda(    9)=  1.3157   gamma= 3550.19 GHz
     lambda(   10)=  0.0004   gamma=    1.36 GHz
     lambda(   11)=  0.0004   gamma=    1.60 GHz
     lambda(   12)=  0.0004   gamma=    1.47 GHz
     lambda(   13)=  0.0103   gamma=   46.78 GHz
     lambda(   14)=  0.0099   gamma=   44.71 GHz
     lambda(   15)=  0.0104   gamma=   47.14 GHz
     lambda(   16)=  0.0003   gamma=    1.22 GHz
     lambda(   17)=  0.0007   gamma=    4.16 GHz
     lambda(   18)=  0.0008   gamma=    4.80 GHz
     lambda(   19)=  0.0008   gamma=    4.39 GHz
     lambda(   20)=  0.1210   gamma= 1124.59 GHz
     lambda(   21)=  0.1207   gamma= 1120.96 GHz
     Gaussian Broadening:   0.050 Ry, ngauss=   0
     DOS =  2.436152 states/spin/Ry/Unit Cell at Ef= 17.140123 eV
     lambda(    1)=  0.0000   gamma=    0.12 GHz
     lambda(    2)=  0.0000   gamma=    0.11 GHz
     lambda(    3)=  0.0000   gamma=    0.14 GHz
     lambda(    4)=  0.0072   gamma=   15.81 GHz
     lambda(    5)=  0.0079   gamma=   17.42 GHz
     lambda(    6)=  0.0079   gamma=   17.39 GHz
     lambda(    7)=  1.1878   gamma= 3230.76 GHz
     lambda(    8)=  1.1928   gamma= 3244.22 GHz
     lambda(    9)=  1.1864   gamma= 3226.79 GHz
     lambda(   10)=  0.0005   gamma=    2.08 GHz
     lambda(   11)=  0.0006   gamma=    2.41 GHz
     lambda(   12)=  0.0006   gamma=    2.27 GHz
     lambda(   13)=  0.0099   gamma=   45.31 GHz
     lambda(   14)=  0.0095   gamma=   43.58 GHz
     lambda(   15)=  0.0100   gamma=   45.70 GHz
     lambda(   16)=  0.0002   gamma=    1.13 GHz
     lambda(   17)=  0.0009   gamma=    5.07 GHz
     lambda(   18)=  0.0010   gamma=    5.71 GHz
     lambda(   19)=  0.0009   gamma=    5.28 GHz
     lambda(   20)=  0.1105   gamma= 1034.87 GHz
     lambda(   21)=  0.1102   gamma= 1032.43 GHz
 
 
     Number of q in the star =    1
     List of q in the star:
          1   0.000000000   0.000000000   0.000000000
 
     PHONON       :   1m55.70s CPU   2m50.98s WALL

     INITIALIZATION: 
     phq_setup    :      0.01s CPU      0.06s WALL (       1 calls)
     phq_init     :      0.90s CPU      1.31s WALL (       1 calls)
 
     phq_init     :      0.90s CPU      1.31s WALL (       1 calls)
     set_drhoc    :      0.04s CPU      0.04s WALL (       3 calls)
     init_vloc    :      0.00s CPU      0.01s WALL (       1 calls)
     init_us_1    :      0.03s CPU      0.14s WALL (       1 calls)
     newd         :      0.00s CPU      0.05s WALL (       1 calls)
     dvanqq       :      0.17s CPU      0.17s WALL (       1 calls)
     drho         :      0.57s CPU      0.72s WALL (       1 calls)
 
     DYNAMICAL MATRIX:
     dynmat0      :      0.09s CPU      0.20s WALL (       1 calls)
     phqscf       :     83.06s CPU    126.06s WALL (       1 calls)
     dynmatrix    :      0.00s CPU      0.02s WALL (       1 calls)
 
     phqscf       :     83.06s CPU    126.06s WALL (       1 calls)
     solve_linter :     82.60s CPU    122.63s WALL (       8 calls)
     drhodv       :      0.45s CPU      0.82s WALL (       8 calls)
 
     dynmat0      :      0.09s CPU      0.20s WALL (       1 calls)
     dynmat_us    :      0.05s CPU      0.06s WALL (       1 calls)
     d2ionq       :      0.01s CPU      0.01s WALL (       1 calls)
     dynmatcc     :      0.03s CPU      0.03s WALL (       1 calls)
 
     dynmat_us    :      0.05s CPU      0.06s WALL (       1 calls)
     addusdynmat  :      0.00s CPU      0.00s WALL (       1 calls)
 
     phqscf       :     83.06s CPU    126.06s WALL (       1 calls)
     solve_linter :     82.60s CPU    122.63s WALL (       8 calls)
 
     solve_linter :     82.60s CPU    122.63s WALL (       8 calls)
     dvqpsi_us    :      1.17s CPU      1.27s WALL (     777 calls)
     ortho        :      2.41s CPU      2.54s WALL (    4292 calls)
     cgsolve      :     32.10s CPU     36.40s WALL (    4292 calls)
     incdrhoscf   :      8.11s CPU      9.98s WALL (    4292 calls)
     addusddens   :      0.55s CPU      0.85s WALL (      52 calls)
     vpsifft      :      6.91s CPU      8.43s WALL (    4292 calls)
     dv_of_drho   :      0.25s CPU      0.32s WALL (     116 calls)
     mix_pot      :      2.74s CPU     14.15s WALL (      44 calls)
     ef_shift     :      0.17s CPU      1.56s WALL (      52 calls)
     localdos     :      0.49s CPU      0.65s WALL (       8 calls)
     psymdvscf    :     15.26s CPU     15.54s WALL (      44 calls)
     newdq        :      0.98s CPU      0.99s WALL (      44 calls)
     adddvscf     :      0.14s CPU      0.16s WALL (    4292 calls)
     drhodvus     :      0.28s CPU      1.21s WALL (       8 calls)
 
     dvqpsi_us    :      1.17s CPU      1.27s WALL (     777 calls)
     dvqpsi_us_on :      0.45s CPU      0.48s WALL (     777 calls)
 
     cgsolve      :     32.10s CPU     36.40s WALL (    4292 calls)
     ch_psi       :     31.36s CPU     35.56s WALL (   58770 calls)
 
     ch_psi       :     31.36s CPU     35.56s WALL (   58770 calls)
     h_psi        :     27.65s CPU     31.40s WALL (   58770 calls)
     last         :      2.42s CPU      2.71s WALL (   58770 calls)
 
     h_psi        :     27.65s CPU     31.40s WALL (   58770 calls)
     add_vuspsi   :      0.57s CPU      0.65s WALL (   58770 calls)
 
     incdrhoscf   :      8.11s CPU      9.98s WALL (    4292 calls)
     addusdbec    :      0.15s CPU      0.16s WALL (    5069 calls)
 
     drhodvus     :      0.28s CPU      1.21s WALL (       8 calls)
 
      Electron-phonon coupling
     elphel       :      1.92s CPU      5.26s WALL (       8 calls)
     elphsum      :     30.86s CPU     32.85s WALL (       1 calls)
 
      General routines
     calbec       :      2.53s CPU      2.91s WALL (  130675 calls)
     fft          :      0.53s CPU      0.80s WALL (    2802 calls)
     ffts         :      0.23s CPU      0.30s WALL (    3628 calls)
     fftw         :     38.49s CPU     45.09s WALL (  810924 calls)
     davcio       :      0.75s CPU     16.52s WALL (   18455 calls)
     write_rec    :      0.05s CPU      7.29s WALL (      52 calls)
 
 
     PHONON       :   1m55.70s CPU   2m50.98s WALL

 
   This run was terminated on:   9:10:41   3Aug2022            

=------------------------------------------------------------------------------=
   JOB DONE.
=------------------------------------------------------------------------------=
