
     Program PHONON v.6.8 starts on 31Jul2022 at  9: 0:34 

     This program is part of the open-source Quantum ESPRESSO suite
     for quantum simulation of materials; please cite
         "P. Giannozzi et al., J. Phys.:Condens. Matter 21 395502 (2009);
         "P. Giannozzi et al., J. Phys.:Condens. Matter 29 465901 (2017);
         "P. Giannozzi et al., J. Chem. Phys. 152 154105 (2020);
          URL http://www.quantum-espresso.org", 
     in publications or presentations arising from this work. More details at
     http://www.quantum-espresso.org/quote

     Parallel version (MPI), running on    48 processors

     MPI processes distributed on     1 nodes
     K-points division:     npool     =       4
     R & G space division:  proc/nbgrp/npool/nimage =      12
     188922 MiB available memory on the printing compute node when the environment starts
 
     Waiting for input...
     Reading input from standard input

     Reading xml data from directory:

     ./tmp/Ca1H6.save/

     IMPORTANT: XC functional enforced from input :
     Exchange-correlation= PBE
                           (   1   4   3   4   0   0   0)
     Any further DFT definition will be discarded
     Please, verify this is what you really want

 
     Parallelization info
     --------------------
     sticks:   dense  smooth     PW     G-vecs:    dense   smooth      PW
     Min         139      46     17                 3602      698     155
     Max         140      47     18                 3604      701     157
     Sum        1669     557    205                43227     8391    1865
 
     Using Slab Decomposition
 
     Reading collected, re-writing distributed wavefunctions


     Dynamical matrices for ( 8, 8, 8)  uniform grid of q-points
     (  29 q-points):
       N         xq(1)         xq(2)         xq(3) 
       1   0.000000000   0.000000000   0.000000000
       2   0.108253175   0.108253175   0.000000000
       3   0.216506351   0.216506351   0.000000000
       4   0.324759526   0.324759526   0.000000000
       5  -0.433012702  -0.433012702   0.000000000
       6   0.216506351   0.108253175   0.108253175
       7   0.324759526   0.216506351   0.108253175
       8   0.433012702   0.324759526   0.108253175
       9   0.433012702   0.216506351   0.216506351
      10   0.541265877   0.324759526   0.216506351
      11   0.216506351   0.216506351   0.216506351
      12   0.324759526   0.324759526   0.216506351
      13   0.433012702   0.433012702   0.216506351
      14  -0.000000000  -0.000000000   0.216506351
      15   0.433012702   0.324759526   0.324759526
      16  -0.000000000  -0.108253175   0.324759526
      17  -0.000000000  -0.216506351   0.433012702
      18   0.108253175  -0.108253175   0.433012702
      19  -0.866025404  -0.324759526  -0.324759526
      20  -0.757772228  -0.216506351  -0.324759526
      21  -0.649519053  -0.216506351  -0.216506351
      22   0.433012702   0.433012702   0.433012702
      23  -0.000000000  -0.000000000   0.433012702
      24  -0.000000000  -0.108253175   0.541265877
      25  -0.866025404  -0.216506351  -0.216506351
      26  -0.757772228  -0.108253175  -0.216506351
      27  -0.000000000  -0.000000000   0.649519053
      28  -0.866025404  -0.108253175  -0.108253175
      29  -0.866025404  -0.866025404  -0.866025404

     Saving dvscf to file. Distribute only q points, not irreducible represetations.

     Calculation of q =   -0.7577722  -0.2165064  -0.3247595

     Subspace diagonalization in iterative solution of the eigenvalue problem:
     a serial algorithm will be used

 
     Parallelization info
     --------------------
     sticks:   dense  smooth     PW     G-vecs:    dense   smooth      PW
     Min         139      46     20                 3602      698     206
     Max         140      47     21                 3604      701     208
     Sum        1669     557    249                43227     8391    2491
 
     Using Slab Decomposition
 

     Title: 
     Electron-phonon coefficients for Ca1H6                                     


     bravais-lattice index     =            0
     lattice parameter (alat)  =       5.5613  a.u.
     unit-cell volume          =     132.4087 (a.u.)^3
     number of atoms/cell      =            7
     number of atomic types    =            2
     number of electrons       =        16.00
     number of Kohn-Sham states=           12
     kinetic-energy cutoff     =      60.0000  Ry
     charge density cutoff     =     720.0000  Ry
     Exchange-correlation= PBE
                           (   1   4   3   4   0   0   0)

     celldm(1)=   5.561340  celldm(2)=   0.000000  celldm(3)=   0.000000
     celldm(4)=   0.000000  celldm(5)=   0.000000  celldm(6)=   0.000000

     crystal axes: (cart. coord. in units of alat)
               a(1) = (  -0.577350   0.577350   0.577350 )  
               a(2) = (   0.577350  -0.577350   0.577350 )  
               a(3) = (   0.577350   0.577350  -0.577350 )  

     reciprocal axes: (cart. coord. in units 2 pi/alat)
               b(1) = ( -0.000000  0.866025  0.866025 )  
               b(2) = (  0.866025 -0.000000  0.866025 )  
               b(3) = (  0.866025  0.866025  0.000000 )  


     PseudoPot. # 1 for Ca read from file:
     /work/home/mayuan/code/my_script/scripts_tests/out2/200.0/pp/ca_pbe_v1.uspp.F.UPF
     MD5 check sum: 403a4c14b9e4d4dfdc3024c9a3812218
     Pseudo is Ultrasoft + core correction, Zval = 10.0
     Generated by new atomic code, or converted to UPF format
     Using radial grid of  845 points,  6 beta functions with: 
                l(1) =   0
                l(2) =   0
                l(3) =   1
                l(4) =   1
                l(5) =   2
                l(6) =   2
     Q(r) pseudized with  8 coefficients,  rinner =    1.500   1.500   1.500
                                                       1.500   1.500

     PseudoPot. # 2 for H  read from file:
     /work/home/mayuan/code/my_script/scripts_tests/out2/200.0/pp/h_pbe_v1.uspp.F.UPF
     MD5 check sum: 3408e3ff4ec8b0a4e358431e7e038a48
     Pseudo is Ultrasoft, Zval =  1.0
     Generated by new atomic code, or converted to UPF format
     Using radial grid of  615 points,  2 beta functions with: 
                l(1) =   0
                l(2) =   0
     Q(r) pseudized with  8 coefficients,  rinner =    0.700

     atomic species   valence    mass     pseudopotential
        Ca            10.00    40.07800     Ca( 1.00)
        H              1.00     1.00794     H ( 1.00)

     48 Sym. Ops., with inversion, found



   Cartesian axes

     site n.     atom                  positions (alat units)
         1           Ca  tau(   1) = (   0.0000000   0.0000000   0.0000000  )
         2           H   tau(   2) = (   0.2886751   0.0000000   0.5773503  )
         3           H   tau(   3) = (   0.2886751   0.5773503   0.0000000  )
         4           H   tau(   4) = (   0.5773503   0.2886751   0.0000000  )
         5           H   tau(   5) = (   0.0000000   0.2886751   0.5773503  )
         6           H   tau(   6) = (   0.0000000   0.5773503   0.2886751  )
         7           H   tau(   7) = (   0.5773503   0.0000000   0.2886751  )

     number of k points=  8192  Methfessel-Paxton smearing, width (Ry)=  0.0200

     Number of k-points >= 100: set verbosity='high' to print them.

     Dense  grid:    43227 G-vectors     FFT dimensions: (  48,  48,  48)

     Smooth grid:     8391 G-vectors     FFT dimensions: (  27,  27,  27)

     Estimated max dynamical RAM per process >       8.41 MB

     Estimated total dynamical RAM >     403.86 MB

     The potential is recalculated from file :
     ./tmp/_ph0/Ca1H6.q_20/Ca1H6.save/charge-density

     Starting wfcs are   16 atomic wfcs

     Band Structure Calculation
     Davidson diagonalization with overlap

     ethr =  6.25E-11,  avg # of iterations = 15.1

     total cpu time spent up to now is      198.1 secs

     End of band structure calculation

     Number of k-points >= 100: set verbosity='high' to print the bands.

     the Fermi energy is    17.0980 ev

     Writing output data file ./tmp/_ph0/Ca1H6.q_20/Ca1H6.save/

     Electron-phonon coefficients for Ca1H6                                     

     bravais-lattice index     =            0
     lattice parameter (alat)  =       5.5613  a.u.
     unit-cell volume          =     132.4087 (a.u.)^3
     number of atoms/cell      =            7
     number of atomic types    =            2
     kinetic-energy cut-off    =      60.0000  Ry
     charge density cut-off    =     720.0000  Ry
     convergence threshold     =      1.0E-16
     beta                      =       0.7000
     number of iterations used =            4
     Exchange-correlation= PBE
                           (   1   4   3   4   0   0   0)


     celldm(1)=    5.56134  celldm(2)=    0.00000  celldm(3)=    0.00000
     celldm(4)=    0.00000  celldm(5)=    0.00000  celldm(6)=    0.00000

     crystal axes: (cart. coord. in units of alat)
               a(1) = ( -0.5774  0.5774  0.5774 )  
               a(2) = (  0.5774 -0.5774  0.5774 )  
               a(3) = (  0.5774  0.5774 -0.5774 )  

     reciprocal axes: (cart. coord. in units 2 pi/alat)
               b(1) = ( -0.0000  0.8660  0.8660 )  
               b(2) = (  0.8660 -0.0000  0.8660 )  
               b(3) = (  0.8660  0.8660  0.0000 )  


     Atoms inside the unit cell: 

     Cartesian axes

     site n.  atom      mass           positions (alat units)
        1     Ca  40.0780   tau(    1) = (    0.00000    0.00000    0.00000  )
        2     H    1.0079   tau(    2) = (    0.28868    0.00000    0.57735  )
        3     H    1.0079   tau(    3) = (    0.28868    0.57735    0.00000  )
        4     H    1.0079   tau(    4) = (    0.57735    0.28868    0.00000  )
        5     H    1.0079   tau(    5) = (    0.00000    0.28868    0.57735  )
        6     H    1.0079   tau(    6) = (    0.00000    0.57735    0.28868  )
        7     H    1.0079   tau(    7) = (    0.57735    0.00000    0.28868  )

     Computing dynamical matrix for 
                    q = (  -0.7577722  -0.2165064  -0.3247595 )
 
     No symmetry!

     G cutoff =  564.0682  (   3604 G-vectors)     FFT grid: ( 48, 48, 48)
     G cutoff =  188.0227  (    699 G-vectors)  smooth grid: ( 27, 27, 27)

     number of k points=  8192  Methfessel-Paxton smearing, width (Ry)=  0.0200

     PseudoPot. # 1 for Ca read from file:
     /work/home/mayuan/code/my_script/scripts_tests/out2/200.0/pp/ca_pbe_v1.uspp.F.UPF
     MD5 check sum: 403a4c14b9e4d4dfdc3024c9a3812218
     Pseudo is Ultrasoft + core correction, Zval = 10.0
     Generated by new atomic code, or converted to UPF format
     Using radial grid of  845 points,  6 beta functions with: 
                l(1) =   0
                l(2) =   0
                l(3) =   1
                l(4) =   1
                l(5) =   2
                l(6) =   2
     Q(r) pseudized with  8 coefficients,  rinner =    1.500   1.500   1.500
                                                       1.500   1.500

     PseudoPot. # 2 for H  read from file:
     /work/home/mayuan/code/my_script/scripts_tests/out2/200.0/pp/h_pbe_v1.uspp.F.UPF
     MD5 check sum: 3408e3ff4ec8b0a4e358431e7e038a48
     Pseudo is Ultrasoft, Zval =  1.0
     Generated by new atomic code, or converted to UPF format
     Using radial grid of  615 points,  2 beta functions with: 
                l(1) =   0
                l(2) =   0
     Q(r) pseudized with  8 coefficients,  rinner =    0.700

     Mode symmetry, C_1 (1)     point group:


     Atomic displacements:
     There are   21 irreducible representations

     Representation     1      1 modes -  To be done

     Representation     2      1 modes -  To be done

     Representation     3      1 modes -  To be done

     Representation     4      1 modes -  To be done

     Representation     5      1 modes -  To be done

     Representation     6      1 modes -  To be done

     Representation     7      1 modes -  To be done

     Representation     8      1 modes -  To be done

     Representation     9      1 modes -  To be done

     Representation    10      1 modes -  To be done

     Representation    11      1 modes -  To be done

     Representation    12      1 modes -  To be done

     Representation    13      1 modes -  To be done

     Representation    14      1 modes -  To be done

     Representation    15      1 modes -  To be done

     Representation    16      1 modes -  To be done

     Representation    17      1 modes -  To be done

     Representation    18      1 modes -  To be done

     Representation    19      1 modes -  To be done

     Representation    20      1 modes -  To be done

     Representation    21      1 modes -  To be done



     Alpha used in Ewald sum =   2.8000
     PHONON       :   3m40.34s CPU   4m 8.61s WALL



     Representation #   1 mode #   1

     Self-consistent Calculation

      iter #   1 total cpu time :   268.5 secs   av.it.:   4.0
      thresh= 1.000E-02 alpha_mix =  0.700 |ddv_scf|^2 =  4.946E-07

      iter #   2 total cpu time :   317.8 secs   av.it.:   9.8
      thresh= 7.033E-05 alpha_mix =  0.700 |ddv_scf|^2 =  8.630E-07

      iter #   3 total cpu time :   361.7 secs   av.it.:   8.9
      thresh= 9.290E-05 alpha_mix =  0.700 |ddv_scf|^2 =  2.832E-08

      iter #   4 total cpu time :   407.5 secs   av.it.:   9.0
      thresh= 1.683E-05 alpha_mix =  0.700 |ddv_scf|^2 =  8.247E-10

      iter #   5 total cpu time :   458.7 secs   av.it.:   9.6
      thresh= 2.872E-06 alpha_mix =  0.700 |ddv_scf|^2 =  1.091E-10

      iter #   6 total cpu time :   503.2 secs   av.it.:   9.6
      thresh= 1.045E-06 alpha_mix =  0.700 |ddv_scf|^2 =  5.973E-12

      iter #   7 total cpu time :   556.9 secs   av.it.:   9.8
      thresh= 2.444E-07 alpha_mix =  0.700 |ddv_scf|^2 =  3.247E-13

      iter #   8 total cpu time :   608.6 secs   av.it.:   9.9
      thresh= 5.698E-08 alpha_mix =  0.700 |ddv_scf|^2 =  4.613E-14

      iter #   9 total cpu time :   657.4 secs   av.it.:   9.7
      thresh= 2.148E-08 alpha_mix =  0.700 |ddv_scf|^2 =  5.494E-14

      iter #  10 total cpu time :   708.0 secs   av.it.:   8.8
      thresh= 2.344E-08 alpha_mix =  0.700 |ddv_scf|^2 =  3.934E-15

      iter #  11 total cpu time :   755.5 secs   av.it.:   9.4
      thresh= 6.272E-09 alpha_mix =  0.700 |ddv_scf|^2 =  4.278E-16

      iter #  12 total cpu time :   803.7 secs   av.it.:   9.5
      thresh= 2.068E-09 alpha_mix =  0.700 |ddv_scf|^2 =  6.232E-17

     End of self-consistent calculation

     Convergence has been achieved 


     Representation #   2 mode #   2

     Self-consistent Calculation

      iter #   1 total cpu time :   837.8 secs   av.it.:   4.0
      thresh= 1.000E-02 alpha_mix =  0.700 |ddv_scf|^2 =  1.081E-06

      iter #   2 total cpu time :   881.9 secs   av.it.:   9.7
      thresh= 1.040E-04 alpha_mix =  0.700 |ddv_scf|^2 =  2.475E-06

      iter #   3 total cpu time :   917.0 secs   av.it.:   8.7
      thresh= 1.573E-04 alpha_mix =  0.700 |ddv_scf|^2 =  2.842E-08

      iter #   4 total cpu time :   958.2 secs   av.it.:   9.1
      thresh= 1.686E-05 alpha_mix =  0.700 |ddv_scf|^2 =  1.072E-09

      iter #   5 total cpu time :   998.0 secs   av.it.:   9.4
      thresh= 3.275E-06 alpha_mix =  0.700 |ddv_scf|^2 =  7.820E-11

      iter #   6 total cpu time :  1038.0 secs   av.it.:   9.6
      thresh= 8.843E-07 alpha_mix =  0.700 |ddv_scf|^2 =  5.292E-12

      iter #   7 total cpu time :  1075.4 secs   av.it.:   9.8
      thresh= 2.300E-07 alpha_mix =  0.700 |ddv_scf|^2 =  3.414E-13

      iter #   8 total cpu time :  1137.6 secs   av.it.:   9.8
      thresh= 5.843E-08 alpha_mix =  0.700 |ddv_scf|^2 =  5.469E-14

      iter #   9 total cpu time :  1175.2 secs   av.it.:   9.3
      thresh= 2.339E-08 alpha_mix =  0.700 |ddv_scf|^2 =  6.072E-14

      iter #  10 total cpu time :  1217.4 secs   av.it.:   8.8
      thresh= 2.464E-08 alpha_mix =  0.700 |ddv_scf|^2 =  3.589E-15

      iter #  11 total cpu time :  1272.4 secs   av.it.:   9.3
      thresh= 5.991E-09 alpha_mix =  0.700 |ddv_scf|^2 =  4.675E-16

      iter #  12 total cpu time :  1312.5 secs   av.it.:   9.6
      thresh= 2.162E-09 alpha_mix =  0.700 |ddv_scf|^2 =  4.464E-17

     End of self-consistent calculation

     Convergence has been achieved 


     Representation #   3 mode #   3

     Self-consistent Calculation

      iter #   1 total cpu time :  1352.1 secs   av.it.:   4.1
      thresh= 1.000E-02 alpha_mix =  0.700 |ddv_scf|^2 =  7.465E-07

      iter #   2 total cpu time :  1381.7 secs   av.it.:   9.7
      thresh= 8.640E-05 alpha_mix =  0.700 |ddv_scf|^2 =  1.858E-06

      iter #   3 total cpu time :  1413.9 secs   av.it.:   8.6
      thresh= 1.363E-04 alpha_mix =  0.700 |ddv_scf|^2 =  1.304E-08

      iter #   4 total cpu time :  1452.8 secs   av.it.:   9.5
      thresh= 1.142E-05 alpha_mix =  0.700 |ddv_scf|^2 =  4.989E-10

      iter #   5 total cpu time :  1491.2 secs   av.it.:   9.7
      thresh= 2.234E-06 alpha_mix =  0.700 |ddv_scf|^2 =  3.264E-11

      iter #   6 total cpu time :  1533.0 secs   av.it.:   9.8
      thresh= 5.713E-07 alpha_mix =  0.700 |ddv_scf|^2 =  7.080E-12

      iter #   7 total cpu time :  1572.7 secs   av.it.:   9.5
      thresh= 2.661E-07 alpha_mix =  0.700 |ddv_scf|^2 =  5.336E-13

      iter #   8 total cpu time :  1621.2 secs   av.it.:   9.8
      thresh= 7.305E-08 alpha_mix =  0.700 |ddv_scf|^2 =  9.725E-14

      iter #   9 total cpu time :  1663.6 secs   av.it.:   9.2
      thresh= 3.118E-08 alpha_mix =  0.700 |ddv_scf|^2 =  6.772E-14

      iter #  10 total cpu time :  1709.4 secs   av.it.:   8.9
      thresh= 2.602E-08 alpha_mix =  0.700 |ddv_scf|^2 =  1.775E-15

      iter #  11 total cpu time :  1765.0 secs   av.it.:   9.8
      thresh= 4.213E-09 alpha_mix =  0.700 |ddv_scf|^2 =  3.006E-16

      iter #  12 total cpu time :  1809.7 secs   av.it.:   9.8
      thresh= 1.734E-09 alpha_mix =  0.700 |ddv_scf|^2 =  3.567E-17

     End of self-consistent calculation

     Convergence has been achieved 


     Representation #   4 mode #   4

     Self-consistent Calculation

      iter #   1 total cpu time :  1841.7 secs   av.it.:   4.0
      thresh= 1.000E-02 alpha_mix =  0.700 |ddv_scf|^2 =  6.596E-07

      iter #   2 total cpu time :  1870.8 secs   av.it.:   9.7
      thresh= 8.122E-05 alpha_mix =  0.700 |ddv_scf|^2 =  1.705E-06

      iter #   3 total cpu time :  1899.6 secs   av.it.:   8.5
      thresh= 1.306E-04 alpha_mix =  0.700 |ddv_scf|^2 =  7.927E-09

      iter #   4 total cpu time :  1939.5 secs   av.it.:   9.7
      thresh= 8.903E-06 alpha_mix =  0.700 |ddv_scf|^2 =  6.539E-10

      iter #   5 total cpu time :  1998.6 secs   av.it.:   9.6
      thresh= 2.557E-06 alpha_mix =  0.700 |ddv_scf|^2 =  5.335E-11

      iter #   6 total cpu time :  2032.8 secs   av.it.:   9.7
      thresh= 7.304E-07 alpha_mix =  0.700 |ddv_scf|^2 =  7.137E-12

      iter #   7 total cpu time :  2074.6 secs   av.it.:   9.7
      thresh= 2.672E-07 alpha_mix =  0.700 |ddv_scf|^2 =  6.731E-13

      iter #   8 total cpu time :  2109.2 secs   av.it.:   9.7
      thresh= 8.204E-08 alpha_mix =  0.700 |ddv_scf|^2 =  4.980E-14

      iter #   9 total cpu time :  2149.0 secs   av.it.:   9.8
      thresh= 2.232E-08 alpha_mix =  0.700 |ddv_scf|^2 =  1.250E-13

      iter #  10 total cpu time :  2188.3 secs   av.it.:   8.5
      thresh= 3.535E-08 alpha_mix =  0.700 |ddv_scf|^2 =  8.625E-16

      iter #  11 total cpu time :  2222.9 secs   av.it.:   9.8
      thresh= 2.937E-09 alpha_mix =  0.700 |ddv_scf|^2 =  2.244E-16

      iter #  12 total cpu time :  2262.6 secs   av.it.:   9.6
      thresh= 1.498E-09 alpha_mix =  0.700 |ddv_scf|^2 =  2.634E-17

     End of self-consistent calculation

     Convergence has been achieved 


     Representation #   5 mode #   5

     Self-consistent Calculation

      iter #   1 total cpu time :  2331.7 secs   av.it.:   6.7
      thresh= 1.000E-02 alpha_mix =  0.700 |ddv_scf|^2 =  4.466E-05

      iter #   2 total cpu time :  2369.2 secs   av.it.:   9.8
      thresh= 6.683E-04 alpha_mix =  0.700 |ddv_scf|^2 =  5.656E-05

      iter #   3 total cpu time :  2401.2 secs   av.it.:   8.8
      thresh= 7.520E-04 alpha_mix =  0.700 |ddv_scf|^2 =  3.044E-06

      iter #   4 total cpu time :  2430.8 secs   av.it.:   8.8
      thresh= 1.745E-04 alpha_mix =  0.700 |ddv_scf|^2 =  8.296E-08

      iter #   5 total cpu time :  2475.8 secs   av.it.:   9.2
      thresh= 2.880E-05 alpha_mix =  0.700 |ddv_scf|^2 =  2.839E-09

      iter #   6 total cpu time :  2518.6 secs   av.it.:   9.5
      thresh= 5.329E-06 alpha_mix =  0.700 |ddv_scf|^2 =  1.879E-10

      iter #   7 total cpu time :  2564.6 secs   av.it.:   9.5
      thresh= 1.371E-06 alpha_mix =  0.700 |ddv_scf|^2 =  1.084E-11

      iter #   8 total cpu time :  2599.4 secs   av.it.:   9.7
      thresh= 3.292E-07 alpha_mix =  0.700 |ddv_scf|^2 =  2.947E-13

      iter #   9 total cpu time :  2636.6 secs   av.it.:   9.9
      thresh= 5.428E-08 alpha_mix =  0.700 |ddv_scf|^2 =  7.261E-14

      iter #  10 total cpu time :  2675.9 secs   av.it.:   9.2
      thresh= 2.695E-08 alpha_mix =  0.700 |ddv_scf|^2 =  3.187E-14

      iter #  11 total cpu time :  2713.5 secs   av.it.:   8.9
      thresh= 1.785E-08 alpha_mix =  0.700 |ddv_scf|^2 =  1.310E-15

      iter #  12 total cpu time :  2763.9 secs   av.it.:   9.3
      thresh= 3.620E-09 alpha_mix =  0.700 |ddv_scf|^2 =  1.736E-16

      iter #  13 total cpu time :  2831.6 secs   av.it.:   9.5
      thresh= 1.318E-09 alpha_mix =  0.700 |ddv_scf|^2 =  1.047E-17

     End of self-consistent calculation

     Convergence has been achieved 


     Representation #   6 mode #   6

     Self-consistent Calculation

      iter #   1 total cpu time :  2865.9 secs   av.it.:   4.0
      thresh= 1.000E-02 alpha_mix =  0.700 |ddv_scf|^2 =  3.114E-07

      iter #   2 total cpu time :  2896.9 secs   av.it.:   9.9
      thresh= 5.580E-05 alpha_mix =  0.700 |ddv_scf|^2 =  3.139E-07

      iter #   3 total cpu time :  2933.6 secs   av.it.:   9.1
      thresh= 5.602E-05 alpha_mix =  0.700 |ddv_scf|^2 =  1.356E-08

      iter #   4 total cpu time :  2968.3 secs   av.it.:   9.0
      thresh= 1.165E-05 alpha_mix =  0.700 |ddv_scf|^2 =  2.724E-09

      iter #   5 total cpu time :  3011.4 secs   av.it.:   9.0
      thresh= 5.219E-06 alpha_mix =  0.700 |ddv_scf|^2 =  4.052E-11

      iter #   6 total cpu time :  3043.9 secs   av.it.:   9.7
      thresh= 6.365E-07 alpha_mix =  0.700 |ddv_scf|^2 =  2.362E-12

      iter #   7 total cpu time :  3078.0 secs   av.it.:   9.8
      thresh= 1.537E-07 alpha_mix =  0.700 |ddv_scf|^2 =  4.906E-13

      iter #   8 total cpu time :  3114.0 secs   av.it.:   9.7
      thresh= 7.004E-08 alpha_mix =  0.700 |ddv_scf|^2 =  3.156E-14

      iter #   9 total cpu time :  3159.0 secs   av.it.:   9.8
      thresh= 1.776E-08 alpha_mix =  0.700 |ddv_scf|^2 =  1.498E-14

      iter #  10 total cpu time :  3241.3 secs   av.it.:   9.1
      thresh= 1.224E-08 alpha_mix =  0.700 |ddv_scf|^2 =  2.217E-15

      iter #  11 total cpu time :  3287.5 secs   av.it.:   9.2
      thresh= 4.709E-09 alpha_mix =  0.700 |ddv_scf|^2 =  7.063E-16

      iter #  12 total cpu time :  3326.2 secs   av.it.:   9.2
      thresh= 2.658E-09 alpha_mix =  0.700 |ddv_scf|^2 =  9.440E-18

     End of self-consistent calculation

     Convergence has been achieved 


     Representation #   7 mode #   7

     Self-consistent Calculation

      iter #   1 total cpu time :  3375.4 secs   av.it.:   4.0
      thresh= 1.000E-02 alpha_mix =  0.700 |ddv_scf|^2 =  4.342E-07

      iter #   2 total cpu time :  3408.7 secs   av.it.:   9.8
      thresh= 6.589E-05 alpha_mix =  0.700 |ddv_scf|^2 =  6.749E-07

      iter #   3 total cpu time :  3437.8 secs   av.it.:   8.8
      thresh= 8.216E-05 alpha_mix =  0.700 |ddv_scf|^2 =  2.333E-08

      iter #   4 total cpu time :  3474.7 secs   av.it.:   8.9
      thresh= 1.528E-05 alpha_mix =  0.700 |ddv_scf|^2 =  1.758E-09

      iter #   5 total cpu time :  3508.9 secs   av.it.:   9.1
      thresh= 4.192E-06 alpha_mix =  0.700 |ddv_scf|^2 =  5.799E-11

      iter #   6 total cpu time :  3538.7 secs   av.it.:   9.8
      thresh= 7.615E-07 alpha_mix =  0.700 |ddv_scf|^2 =  4.417E-12

      iter #   7 total cpu time :  3580.6 secs   av.it.:   9.8
      thresh= 2.102E-07 alpha_mix =  0.700 |ddv_scf|^2 =  5.779E-13

      iter #   8 total cpu time :  3616.6 secs   av.it.:   9.8
      thresh= 7.602E-08 alpha_mix =  0.700 |ddv_scf|^2 =  7.109E-14

      iter #   9 total cpu time :  3655.4 secs   av.it.:   9.6
      thresh= 2.666E-08 alpha_mix =  0.700 |ddv_scf|^2 =  8.207E-14

      iter #  10 total cpu time :  3698.9 secs   av.it.:   8.8
      thresh= 2.865E-08 alpha_mix =  0.700 |ddv_scf|^2 =  6.975E-15

      iter #  11 total cpu time :  3749.4 secs   av.it.:   9.0
      thresh= 8.352E-09 alpha_mix =  0.700 |ddv_scf|^2 =  8.123E-16

      iter #  12 total cpu time :  3800.6 secs   av.it.:   9.5
      thresh= 2.850E-09 alpha_mix =  0.700 |ddv_scf|^2 =  4.228E-17

     End of self-consistent calculation

     Convergence has been achieved 


     Representation #   8 mode #   8

     Self-consistent Calculation

      iter #   1 total cpu time :  3839.1 secs   av.it.:   4.0
      thresh= 1.000E-02 alpha_mix =  0.700 |ddv_scf|^2 =  2.790E-07

      iter #   2 total cpu time :  3867.3 secs   av.it.:   9.9
      thresh= 5.282E-05 alpha_mix =  0.700 |ddv_scf|^2 =  4.055E-07

      iter #   3 total cpu time :  3913.1 secs   av.it.:   8.9
      thresh= 6.368E-05 alpha_mix =  0.700 |ddv_scf|^2 =  2.034E-08

      iter #   4 total cpu time :  3958.4 secs   av.it.:   9.1
      thresh= 1.426E-05 alpha_mix =  0.700 |ddv_scf|^2 =  1.254E-09

      iter #   5 total cpu time :  4034.7 secs   av.it.:   9.2
      thresh= 3.541E-06 alpha_mix =  0.700 |ddv_scf|^2 =  7.046E-11

      iter #   6 total cpu time :  4091.4 secs   av.it.:   9.7
      thresh= 8.394E-07 alpha_mix =  0.700 |ddv_scf|^2 =  5.866E-12

      iter #   7 total cpu time :  4130.5 secs   av.it.:   9.8
      thresh= 2.422E-07 alpha_mix =  0.700 |ddv_scf|^2 =  7.394E-13

      iter #   8 total cpu time :  4163.6 secs   av.it.:   9.7
      thresh= 8.599E-08 alpha_mix =  0.700 |ddv_scf|^2 =  5.056E-14

      iter #   9 total cpu time :  4209.5 secs   av.it.:   9.9
      thresh= 2.249E-08 alpha_mix =  0.700 |ddv_scf|^2 =  7.139E-14

      iter #  10 total cpu time :  4258.8 secs   av.it.:   8.8
      thresh= 2.672E-08 alpha_mix =  0.700 |ddv_scf|^2 =  5.865E-15

      iter #  11 total cpu time :  4302.9 secs   av.it.:   9.4
      thresh= 7.658E-09 alpha_mix =  0.700 |ddv_scf|^2 =  8.631E-16

      iter #  12 total cpu time :  4335.5 secs   av.it.:   9.3
      thresh= 2.938E-09 alpha_mix =  0.700 |ddv_scf|^2 =  4.491E-17

     End of self-consistent calculation

     Convergence has been achieved 


     Representation #   9 mode #   9

     Self-consistent Calculation

      iter #   1 total cpu time :  4360.0 secs   av.it.:   4.1
      thresh= 1.000E-02 alpha_mix =  0.700 |ddv_scf|^2 =  1.015E-06

      iter #   2 total cpu time :  4393.7 secs   av.it.:   9.8
      thresh= 1.007E-04 alpha_mix =  0.700 |ddv_scf|^2 =  2.442E-06

      iter #   3 total cpu time :  4422.5 secs   av.it.:   8.7
      thresh= 1.563E-04 alpha_mix =  0.700 |ddv_scf|^2 =  2.519E-08

      iter #   4 total cpu time :  4451.6 secs   av.it.:   9.1
      thresh= 1.587E-05 alpha_mix =  0.700 |ddv_scf|^2 =  1.042E-09

      iter #   5 total cpu time :  4498.6 secs   av.it.:   9.5
      thresh= 3.229E-06 alpha_mix =  0.700 |ddv_scf|^2 =  7.260E-11

      iter #   6 total cpu time :  4536.5 secs   av.it.:   9.7
      thresh= 8.521E-07 alpha_mix =  0.700 |ddv_scf|^2 =  3.895E-12

      iter #   7 total cpu time :  4578.2 secs   av.it.:   9.8
      thresh= 1.973E-07 alpha_mix =  0.700 |ddv_scf|^2 =  3.034E-13

      iter #   8 total cpu time :  4610.1 secs   av.it.:   9.9
      thresh= 5.508E-08 alpha_mix =  0.700 |ddv_scf|^2 =  9.028E-14

      iter #   9 total cpu time :  4644.2 secs   av.it.:   9.3
      thresh= 3.005E-08 alpha_mix =  0.700 |ddv_scf|^2 =  6.017E-14

      iter #  10 total cpu time :  4684.1 secs   av.it.:   8.9
      thresh= 2.453E-08 alpha_mix =  0.700 |ddv_scf|^2 =  4.034E-15

      iter #  11 total cpu time :  4725.0 secs   av.it.:   9.3
      thresh= 6.351E-09 alpha_mix =  0.700 |ddv_scf|^2 =  4.249E-16

      iter #  12 total cpu time :  4760.1 secs   av.it.:   9.7
      thresh= 2.061E-09 alpha_mix =  0.700 |ddv_scf|^2 =  4.497E-17

     End of self-consistent calculation

     Convergence has been achieved 


     Representation #  10 mode #  10

     Self-consistent Calculation

      iter #   1 total cpu time :  4792.0 secs   av.it.:   4.1
      thresh= 1.000E-02 alpha_mix =  0.700 |ddv_scf|^2 =  1.671E-06

      iter #   2 total cpu time :  4827.2 secs   av.it.:   9.7
      thresh= 1.293E-04 alpha_mix =  0.700 |ddv_scf|^2 =  4.263E-06

      iter #   3 total cpu time :  4861.3 secs   av.it.:   8.7
      thresh= 2.065E-04 alpha_mix =  0.700 |ddv_scf|^2 =  3.042E-08

      iter #   4 total cpu time :  4895.6 secs   av.it.:   9.1
      thresh= 1.744E-05 alpha_mix =  0.700 |ddv_scf|^2 =  7.520E-10

      iter #   5 total cpu time :  4923.5 secs   av.it.:   9.5
      thresh= 2.742E-06 alpha_mix =  0.700 |ddv_scf|^2 =  1.923E-11

      iter #   6 total cpu time :  4960.9 secs   av.it.:   9.9
      thresh= 4.386E-07 alpha_mix =  0.700 |ddv_scf|^2 =  9.418E-13

      iter #   7 total cpu time :  4993.7 secs   av.it.:   9.8
      thresh= 9.705E-08 alpha_mix =  0.700 |ddv_scf|^2 =  1.187E-13

      iter #   8 total cpu time :  5032.0 secs   av.it.:   9.8
      thresh= 3.446E-08 alpha_mix =  0.700 |ddv_scf|^2 =  3.449E-14

      iter #   9 total cpu time :  5064.7 secs   av.it.:   9.4
      thresh= 1.857E-08 alpha_mix =  0.700 |ddv_scf|^2 =  1.314E-14

      iter #  10 total cpu time :  5110.9 secs   av.it.:   8.9
      thresh= 1.146E-08 alpha_mix =  0.700 |ddv_scf|^2 =  8.068E-16

      iter #  11 total cpu time :  5145.3 secs   av.it.:   9.5
      thresh= 2.840E-09 alpha_mix =  0.700 |ddv_scf|^2 =  1.513E-16

      iter #  12 total cpu time :  5190.9 secs   av.it.:   9.5
      thresh= 1.230E-09 alpha_mix =  0.700 |ddv_scf|^2 =  4.432E-18

     End of self-consistent calculation

     Convergence has been achieved 


     Representation #  11 mode #  11

     Self-consistent Calculation

      iter #   1 total cpu time :  5221.0 secs   av.it.:   4.1
      thresh= 1.000E-02 alpha_mix =  0.700 |ddv_scf|^2 =  1.372E-06

      iter #   2 total cpu time :  5249.9 secs   av.it.:   9.5
      thresh= 1.171E-04 alpha_mix =  0.700 |ddv_scf|^2 =  3.091E-06

      iter #   3 total cpu time :  5278.7 secs   av.it.:   8.6
      thresh= 1.758E-04 alpha_mix =  0.700 |ddv_scf|^2 =  3.741E-08

      iter #   4 total cpu time :  5314.9 secs   av.it.:   8.9
      thresh= 1.934E-05 alpha_mix =  0.700 |ddv_scf|^2 =  9.880E-10

      iter #   5 total cpu time :  5347.1 secs   av.it.:   9.5
      thresh= 3.143E-06 alpha_mix =  0.700 |ddv_scf|^2 =  3.543E-11

      iter #   6 total cpu time :  5381.6 secs   av.it.:   9.6
      thresh= 5.952E-07 alpha_mix =  0.700 |ddv_scf|^2 =  3.040E-12

      iter #   7 total cpu time :  5425.3 secs   av.it.:   9.8
      thresh= 1.743E-07 alpha_mix =  0.700 |ddv_scf|^2 =  4.317E-13

      iter #   8 total cpu time :  5464.9 secs   av.it.:   9.7
      thresh= 6.570E-08 alpha_mix =  0.700 |ddv_scf|^2 =  4.476E-14

      iter #   9 total cpu time :  5500.8 secs   av.it.:   9.3
      thresh= 2.116E-08 alpha_mix =  0.700 |ddv_scf|^2 =  3.505E-14

      iter #  10 total cpu time :  5561.9 secs   av.it.:   8.8
      thresh= 1.872E-08 alpha_mix =  0.700 |ddv_scf|^2 =  3.753E-15

      iter #  11 total cpu time :  5598.2 secs   av.it.:   9.0
      thresh= 6.126E-09 alpha_mix =  0.700 |ddv_scf|^2 =  1.928E-16

      iter #  12 total cpu time :  5636.4 secs   av.it.:   9.7
      thresh= 1.388E-09 alpha_mix =  0.700 |ddv_scf|^2 =  9.097E-18

     End of self-consistent calculation

     Convergence has been achieved 


     Representation #  12 mode #  12

     Self-consistent Calculation

      iter #   1 total cpu time :  5663.7 secs   av.it.:   4.1
      thresh= 1.000E-02 alpha_mix =  0.700 |ddv_scf|^2 =  1.391E-06

      iter #   2 total cpu time :  5689.1 secs   av.it.:   9.7
      thresh= 1.179E-04 alpha_mix =  0.700 |ddv_scf|^2 =  3.599E-06

      iter #   3 total cpu time :  5729.6 secs   av.it.:   8.7
      thresh= 1.897E-04 alpha_mix =  0.700 |ddv_scf|^2 =  2.266E-08

      iter #   4 total cpu time :  5764.9 secs   av.it.:   9.2
      thresh= 1.505E-05 alpha_mix =  0.700 |ddv_scf|^2 =  1.067E-09

      iter #   5 total cpu time :  5794.1 secs   av.it.:   9.5
      thresh= 3.266E-06 alpha_mix =  0.700 |ddv_scf|^2 =  2.793E-11

      iter #   6 total cpu time :  5826.2 secs   av.it.:   9.9
      thresh= 5.285E-07 alpha_mix =  0.700 |ddv_scf|^2 =  8.604E-13

      iter #   7 total cpu time :  5865.3 secs   av.it.:   9.9
      thresh= 9.276E-08 alpha_mix =  0.700 |ddv_scf|^2 =  6.959E-14

      iter #   8 total cpu time :  5907.3 secs   av.it.:   9.8
      thresh= 2.638E-08 alpha_mix =  0.700 |ddv_scf|^2 =  1.335E-14

      iter #   9 total cpu time :  5942.7 secs   av.it.:   9.7
      thresh= 1.156E-08 alpha_mix =  0.700 |ddv_scf|^2 =  1.002E-14

      iter #  10 total cpu time :  5978.2 secs   av.it.:   8.8
      thresh= 1.001E-08 alpha_mix =  0.700 |ddv_scf|^2 =  4.046E-16

      iter #  11 total cpu time :  6020.9 secs   av.it.:   9.4
      thresh= 2.011E-09 alpha_mix =  0.700 |ddv_scf|^2 =  4.805E-17

     End of self-consistent calculation

     Convergence has been achieved 


     Representation #  13 mode #  13

     Self-consistent Calculation

      iter #   1 total cpu time :  6049.4 secs   av.it.:   4.1
      thresh= 1.000E-02 alpha_mix =  0.700 |ddv_scf|^2 =  1.364E-06

      iter #   2 total cpu time :  6081.5 secs   av.it.:   9.8
      thresh= 1.168E-04 alpha_mix =  0.700 |ddv_scf|^2 =  3.179E-06

      iter #   3 total cpu time :  6121.4 secs   av.it.:   8.8
      thresh= 1.783E-04 alpha_mix =  0.700 |ddv_scf|^2 =  3.639E-08

      iter #   4 total cpu time :  6162.8 secs   av.it.:   9.1
      thresh= 1.908E-05 alpha_mix =  0.700 |ddv_scf|^2 =  8.486E-10

      iter #   5 total cpu time :  6194.3 secs   av.it.:   9.4
      thresh= 2.913E-06 alpha_mix =  0.700 |ddv_scf|^2 =  2.081E-11

      iter #   6 total cpu time :  6229.6 secs   av.it.:   9.9
      thresh= 4.562E-07 alpha_mix =  0.700 |ddv_scf|^2 =  2.348E-12

      iter #   7 total cpu time :  6273.1 secs   av.it.:   9.7
      thresh= 1.532E-07 alpha_mix =  0.700 |ddv_scf|^2 =  2.499E-13

      iter #   8 total cpu time :  6318.8 secs   av.it.:   9.7
      thresh= 4.999E-08 alpha_mix =  0.700 |ddv_scf|^2 =  3.888E-14

      iter #   9 total cpu time :  6354.7 secs   av.it.:   9.6
      thresh= 1.972E-08 alpha_mix =  0.700 |ddv_scf|^2 =  4.206E-14

      iter #  10 total cpu time :  6384.8 secs   av.it.:   8.8
      thresh= 2.051E-08 alpha_mix =  0.700 |ddv_scf|^2 =  2.153E-15

      iter #  11 total cpu time :  6421.8 secs   av.it.:   9.3
      thresh= 4.640E-09 alpha_mix =  0.700 |ddv_scf|^2 =  2.266E-16

      iter #  12 total cpu time :  6457.8 secs   av.it.:   9.7
      thresh= 1.505E-09 alpha_mix =  0.700 |ddv_scf|^2 =  1.185E-17

     End of self-consistent calculation

     Convergence has been achieved 


     Representation #  14 mode #  14

     Self-consistent Calculation

      iter #   1 total cpu time :  6496.4 secs   av.it.:   6.9
      thresh= 1.000E-02 alpha_mix =  0.700 |ddv_scf|^2 =  1.904E-04

      iter #   2 total cpu time :  6531.4 secs   av.it.:   9.6
      thresh= 1.380E-03 alpha_mix =  0.700 |ddv_scf|^2 =  5.546E-04

      iter #   3 total cpu time :  6565.4 secs   av.it.:   8.4
      thresh= 2.355E-03 alpha_mix =  0.700 |ddv_scf|^2 =  1.347E-06

      iter #   4 total cpu time :  6605.8 secs   av.it.:   9.3
      thresh= 1.161E-04 alpha_mix =  0.700 |ddv_scf|^2 =  4.986E-08

      iter #   5 total cpu time :  6636.8 secs   av.it.:   9.5
      thresh= 2.233E-05 alpha_mix =  0.700 |ddv_scf|^2 =  3.181E-09

      iter #   6 total cpu time :  6684.8 secs   av.it.:   9.4
      thresh= 5.640E-06 alpha_mix =  0.700 |ddv_scf|^2 =  2.289E-10

      iter #   7 total cpu time :  6727.0 secs   av.it.:   9.3
      thresh= 1.513E-06 alpha_mix =  0.700 |ddv_scf|^2 =  1.066E-11

      iter #   8 total cpu time :  6764.9 secs   av.it.:   9.7
      thresh= 3.266E-07 alpha_mix =  0.700 |ddv_scf|^2 =  2.609E-13

      iter #   9 total cpu time :  6809.9 secs   av.it.:   9.9
      thresh= 5.108E-08 alpha_mix =  0.700 |ddv_scf|^2 =  2.023E-14

      iter #  10 total cpu time :  6851.1 secs   av.it.:   9.7
      thresh= 1.422E-08 alpha_mix =  0.700 |ddv_scf|^2 =  3.574E-15

      iter #  11 total cpu time :  6892.1 secs   av.it.:   9.4
      thresh= 5.978E-09 alpha_mix =  0.700 |ddv_scf|^2 =  1.045E-15

      iter #  12 total cpu time :  6938.2 secs   av.it.:   9.1
      thresh= 3.232E-09 alpha_mix =  0.700 |ddv_scf|^2 =  1.905E-16

      iter #  13 total cpu time :  6978.4 secs   av.it.:   9.0
      thresh= 1.380E-09 alpha_mix =  0.700 |ddv_scf|^2 =  5.525E-18

     End of self-consistent calculation

     Convergence has been achieved 


     Representation #  15 mode #  15

     Self-consistent Calculation

      iter #   1 total cpu time :  7022.3 secs   av.it.:   4.0
      thresh= 1.000E-02 alpha_mix =  0.700 |ddv_scf|^2 =  8.924E-07

      iter #   2 total cpu time :  7278.9 secs   av.it.:   9.6
      thresh= 9.447E-05 alpha_mix =  0.700 |ddv_scf|^2 =  1.737E-06

      iter #   3 total cpu time :  7315.3 secs   av.it.:   8.7
      thresh= 1.318E-04 alpha_mix =  0.700 |ddv_scf|^2 =  3.475E-08

      iter #   4 total cpu time :  7349.3 secs   av.it.:   8.9
      thresh= 1.864E-05 alpha_mix =  0.700 |ddv_scf|^2 =  1.283E-09

      iter #   5 total cpu time :  7399.0 secs   av.it.:   9.3
      thresh= 3.582E-06 alpha_mix =  0.700 |ddv_scf|^2 =  5.325E-11

      iter #   6 total cpu time :  7438.5 secs   av.it.:   9.7
      thresh= 7.297E-07 alpha_mix =  0.700 |ddv_scf|^2 =  4.907E-12

      iter #   7 total cpu time :  7478.4 secs   av.it.:   9.8
      thresh= 2.215E-07 alpha_mix =  0.700 |ddv_scf|^2 =  5.294E-13

      iter #   8 total cpu time :  7524.0 secs   av.it.:   9.7
      thresh= 7.276E-08 alpha_mix =  0.700 |ddv_scf|^2 =  5.052E-14

      iter #   9 total cpu time :  7563.1 secs   av.it.:   9.5
      thresh= 2.248E-08 alpha_mix =  0.700 |ddv_scf|^2 =  5.637E-14

      iter #  10 total cpu time :  7604.0 secs   av.it.:   8.8
      thresh= 2.374E-08 alpha_mix =  0.700 |ddv_scf|^2 =  5.411E-15

      iter #  11 total cpu time :  7646.9 secs   av.it.:   9.1
      thresh= 7.356E-09 alpha_mix =  0.700 |ddv_scf|^2 =  3.157E-16

      iter #  12 total cpu time :  7694.1 secs   av.it.:   9.6
      thresh= 1.777E-09 alpha_mix =  0.700 |ddv_scf|^2 =  2.119E-17

     End of self-consistent calculation

     Convergence has been achieved 


     Representation #  16 mode #  16

     Self-consistent Calculation

      iter #   1 total cpu time :  7721.9 secs   av.it.:   4.0
      thresh= 1.000E-02 alpha_mix =  0.700 |ddv_scf|^2 =  2.558E-07

      iter #   2 total cpu time :  7752.2 secs   av.it.:   9.8
      thresh= 5.058E-05 alpha_mix =  0.700 |ddv_scf|^2 =  1.920E-07

      iter #   3 total cpu time :  7784.6 secs   av.it.:   9.2
      thresh= 4.382E-05 alpha_mix =  0.700 |ddv_scf|^2 =  1.017E-08

      iter #   4 total cpu time :  7822.9 secs   av.it.:   9.1
      thresh= 1.008E-05 alpha_mix =  0.700 |ddv_scf|^2 =  2.056E-09

      iter #   5 total cpu time :  7857.1 secs   av.it.:   9.0
      thresh= 4.535E-06 alpha_mix =  0.700 |ddv_scf|^2 =  1.117E-10

      iter #   6 total cpu time :  7892.9 secs   av.it.:   9.5
      thresh= 1.057E-06 alpha_mix =  0.700 |ddv_scf|^2 =  6.127E-12

      iter #   7 total cpu time :  7933.6 secs   av.it.:   9.8
      thresh= 2.475E-07 alpha_mix =  0.700 |ddv_scf|^2 =  5.006E-13

      iter #   8 total cpu time :  7991.6 secs   av.it.:   9.8
      thresh= 7.076E-08 alpha_mix =  0.700 |ddv_scf|^2 =  4.645E-14

      iter #   9 total cpu time :  8037.1 secs   av.it.:   9.9
      thresh= 2.155E-08 alpha_mix =  0.700 |ddv_scf|^2 =  3.256E-14

      iter #  10 total cpu time :  8089.5 secs   av.it.:   9.2
      thresh= 1.804E-08 alpha_mix =  0.700 |ddv_scf|^2 =  6.702E-15

      iter #  11 total cpu time :  8147.0 secs   av.it.:   9.0
      thresh= 8.186E-09 alpha_mix =  0.700 |ddv_scf|^2 =  1.247E-15

      iter #  12 total cpu time :  8183.0 secs   av.it.:   9.2
      thresh= 3.531E-09 alpha_mix =  0.700 |ddv_scf|^2 =  7.568E-17

     End of self-consistent calculation

     Convergence has been achieved 


     Representation #  17 mode #  17

     Self-consistent Calculation

      iter #   1 total cpu time :  8217.5 secs   av.it.:   4.0
      thresh= 1.000E-02 alpha_mix =  0.700 |ddv_scf|^2 =  3.468E-07

      iter #   2 total cpu time :  8250.2 secs   av.it.:   9.8
      thresh= 5.889E-05 alpha_mix =  0.700 |ddv_scf|^2 =  6.065E-07

      iter #   3 total cpu time :  8279.9 secs   av.it.:   8.8
      thresh= 7.787E-05 alpha_mix =  0.700 |ddv_scf|^2 =  2.005E-08

      iter #   4 total cpu time :  8309.1 secs   av.it.:   9.1
      thresh= 1.416E-05 alpha_mix =  0.700 |ddv_scf|^2 =  9.196E-10

      iter #   5 total cpu time :  8340.4 secs   av.it.:   9.4
      thresh= 3.033E-06 alpha_mix =  0.700 |ddv_scf|^2 =  7.135E-11

      iter #   6 total cpu time :  8375.7 secs   av.it.:   9.7
      thresh= 8.447E-07 alpha_mix =  0.700 |ddv_scf|^2 =  7.878E-12

      iter #   7 total cpu time :  8409.8 secs   av.it.:   9.7
      thresh= 2.807E-07 alpha_mix =  0.700 |ddv_scf|^2 =  7.086E-13

      iter #   8 total cpu time :  8450.9 secs   av.it.:   9.8
      thresh= 8.418E-08 alpha_mix =  0.700 |ddv_scf|^2 =  7.317E-14

      iter #   9 total cpu time :  8492.7 secs   av.it.:   9.8
      thresh= 2.705E-08 alpha_mix =  0.700 |ddv_scf|^2 =  1.242E-13

      iter #  10 total cpu time :  8528.0 secs   av.it.:   8.7
      thresh= 3.524E-08 alpha_mix =  0.700 |ddv_scf|^2 =  4.346E-15

      iter #  11 total cpu time :  8566.4 secs   av.it.:   9.5
      thresh= 6.592E-09 alpha_mix =  0.700 |ddv_scf|^2 =  7.557E-16

      iter #  12 total cpu time :  8614.4 secs   av.it.:   9.4
      thresh= 2.749E-09 alpha_mix =  0.700 |ddv_scf|^2 =  5.734E-17

     End of self-consistent calculation

     Convergence has been achieved 


     Representation #  18 mode #  18

     Self-consistent Calculation

      iter #   1 total cpu time :  8651.0 secs   av.it.:   6.6
      thresh= 1.000E-02 alpha_mix =  0.700 |ddv_scf|^2 =  2.317E-05

      iter #   2 total cpu time :  8703.8 secs   av.it.:   9.9
      thresh= 4.814E-04 alpha_mix =  0.700 |ddv_scf|^2 =  2.017E-05

      iter #   3 total cpu time :  8741.2 secs   av.it.:   9.2
      thresh= 4.492E-04 alpha_mix =  0.700 |ddv_scf|^2 =  1.136E-06

      iter #   4 total cpu time :  8777.2 secs   av.it.:   9.1
      thresh= 1.066E-04 alpha_mix =  0.700 |ddv_scf|^2 =  1.412E-07

      iter #   5 total cpu time :  8816.2 secs   av.it.:   9.0
      thresh= 3.758E-05 alpha_mix =  0.700 |ddv_scf|^2 =  9.393E-10

      iter #   6 total cpu time :  8852.3 secs   av.it.:   9.8
      thresh= 3.065E-06 alpha_mix =  0.700 |ddv_scf|^2 =  7.589E-11

      iter #   7 total cpu time :  8898.7 secs   av.it.:   9.8
      thresh= 8.711E-07 alpha_mix =  0.700 |ddv_scf|^2 =  1.347E-11

      iter #   8 total cpu time :  8947.0 secs   av.it.:   9.7
      thresh= 3.670E-07 alpha_mix =  0.700 |ddv_scf|^2 =  3.131E-13

      iter #   9 total cpu time :  8993.8 secs   av.it.:   9.9
      thresh= 5.596E-08 alpha_mix =  0.700 |ddv_scf|^2 =  7.062E-14

      iter #  10 total cpu time :  9033.6 secs   av.it.:   9.6
      thresh= 2.657E-08 alpha_mix =  0.700 |ddv_scf|^2 =  5.212E-14

      iter #  11 total cpu time :  9072.1 secs   av.it.:   8.9
      thresh= 2.283E-08 alpha_mix =  0.700 |ddv_scf|^2 =  2.799E-15

      iter #  12 total cpu time :  9112.1 secs   av.it.:   9.5
      thresh= 5.291E-09 alpha_mix =  0.700 |ddv_scf|^2 =  4.864E-16

      iter #  13 total cpu time :  9163.2 secs   av.it.:   9.6
      thresh= 2.205E-09 alpha_mix =  0.700 |ddv_scf|^2 =  2.731E-17

     End of self-consistent calculation

     Convergence has been achieved 


     Representation #  19 mode #  19

     Self-consistent Calculation

      iter #   1 total cpu time :  9201.3 secs   av.it.:   4.1
      thresh= 1.000E-02 alpha_mix =  0.700 |ddv_scf|^2 =  1.047E-06

      iter #   2 total cpu time :  9235.8 secs   av.it.:   9.7
      thresh= 1.023E-04 alpha_mix =  0.700 |ddv_scf|^2 =  2.725E-06

      iter #   3 total cpu time :  9265.5 secs   av.it.:   8.6
      thresh= 1.651E-04 alpha_mix =  0.700 |ddv_scf|^2 =  1.397E-08

      iter #   4 total cpu time :  9331.2 secs   av.it.:   9.5
      thresh= 1.182E-05 alpha_mix =  0.700 |ddv_scf|^2 =  4.858E-10

      iter #   5 total cpu time :  9370.4 secs   av.it.:   9.7
      thresh= 2.204E-06 alpha_mix =  0.700 |ddv_scf|^2 =  3.888E-11

      iter #   6 total cpu time :  9408.9 secs   av.it.:   9.7
      thresh= 6.236E-07 alpha_mix =  0.700 |ddv_scf|^2 =  7.857E-12

      iter #   7 total cpu time :  9472.2 secs   av.it.:   9.4
      thresh= 2.803E-07 alpha_mix =  0.700 |ddv_scf|^2 =  1.269E-13

      iter #   8 total cpu time :  9514.4 secs   av.it.:  10.0
      thresh= 3.562E-08 alpha_mix =  0.700 |ddv_scf|^2 =  4.242E-14

      iter #   9 total cpu time :  9550.5 secs   av.it.:   9.3
      thresh= 2.060E-08 alpha_mix =  0.700 |ddv_scf|^2 =  2.543E-14

      iter #  10 total cpu time :  9588.7 secs   av.it.:   8.9
      thresh= 1.595E-08 alpha_mix =  0.700 |ddv_scf|^2 =  6.161E-16

      iter #  11 total cpu time :  9634.2 secs   av.it.:   9.8
      thresh= 2.482E-09 alpha_mix =  0.700 |ddv_scf|^2 =  1.256E-16

      iter #  12 total cpu time :  9675.3 secs   av.it.:   9.8
      thresh= 1.121E-09 alpha_mix =  0.700 |ddv_scf|^2 =  2.165E-17

     End of self-consistent calculation

     Convergence has been achieved 


     Representation #  20 mode #  20

     Self-consistent Calculation

      iter #   1 total cpu time :  9702.4 secs   av.it.:   4.0
      thresh= 1.000E-02 alpha_mix =  0.700 |ddv_scf|^2 =  4.640E-07

      iter #   2 total cpu time :  9739.4 secs   av.it.:   9.8
      thresh= 6.811E-05 alpha_mix =  0.700 |ddv_scf|^2 =  8.232E-07

      iter #   3 total cpu time :  9772.3 secs   av.it.:   8.8
      thresh= 9.073E-05 alpha_mix =  0.700 |ddv_scf|^2 =  2.591E-08

      iter #   4 total cpu time :  9806.8 secs   av.it.:   9.1
      thresh= 1.610E-05 alpha_mix =  0.700 |ddv_scf|^2 =  7.347E-10

      iter #   5 total cpu time :  9840.2 secs   av.it.:   9.6
      thresh= 2.710E-06 alpha_mix =  0.700 |ddv_scf|^2 =  8.483E-11

      iter #   6 total cpu time :  9878.0 secs   av.it.:   9.5
      thresh= 9.210E-07 alpha_mix =  0.700 |ddv_scf|^2 =  7.946E-12

      iter #   7 total cpu time :  9925.8 secs   av.it.:   9.7
      thresh= 2.819E-07 alpha_mix =  0.700 |ddv_scf|^2 =  6.744E-13

      iter #   8 total cpu time :  9964.4 secs   av.it.:   9.7
      thresh= 8.212E-08 alpha_mix =  0.700 |ddv_scf|^2 =  5.543E-14

      iter #   9 total cpu time : 10004.8 secs   av.it.:   9.8
      thresh= 2.354E-08 alpha_mix =  0.700 |ddv_scf|^2 =  1.157E-13

      iter #  10 total cpu time : 10047.1 secs   av.it.:   8.7
      thresh= 3.401E-08 alpha_mix =  0.700 |ddv_scf|^2 =  3.072E-15

      iter #  11 total cpu time : 10081.3 secs   av.it.:   9.6
      thresh= 5.543E-09 alpha_mix =  0.700 |ddv_scf|^2 =  5.102E-16

      iter #  12 total cpu time : 10114.3 secs   av.it.:   9.5
      thresh= 2.259E-09 alpha_mix =  0.700 |ddv_scf|^2 =  6.338E-17

     End of self-consistent calculation

     Convergence has been achieved 


     Representation #  21 mode #  21

     Self-consistent Calculation

      iter #   1 total cpu time : 10143.0 secs   av.it.:   4.1
      thresh= 1.000E-02 alpha_mix =  0.700 |ddv_scf|^2 =  7.854E-07

      iter #   2 total cpu time : 10175.8 secs   av.it.:   9.8
      thresh= 8.862E-05 alpha_mix =  0.700 |ddv_scf|^2 =  1.796E-06

      iter #   3 total cpu time : 10204.3 secs   av.it.:   8.7
      thresh= 1.340E-04 alpha_mix =  0.700 |ddv_scf|^2 =  2.164E-08

      iter #   4 total cpu time : 10252.7 secs   av.it.:   9.3
      thresh= 1.471E-05 alpha_mix =  0.700 |ddv_scf|^2 =  5.184E-10

      iter #   5 total cpu time : 10293.7 secs   av.it.:   9.7
      thresh= 2.277E-06 alpha_mix =  0.700 |ddv_scf|^2 =  5.721E-11

      iter #   6 total cpu time : 10323.7 secs   av.it.:   9.6
      thresh= 7.564E-07 alpha_mix =  0.700 |ddv_scf|^2 =  7.663E-12

      iter #   7 total cpu time : 10362.1 secs   av.it.:   9.7
      thresh= 2.768E-07 alpha_mix =  0.700 |ddv_scf|^2 =  5.249E-13

      iter #   8 total cpu time : 10398.0 secs   av.it.:   9.8
      thresh= 7.245E-08 alpha_mix =  0.700 |ddv_scf|^2 =  7.515E-14

      iter #   9 total cpu time : 10438.1 secs   av.it.:   9.7
      thresh= 2.741E-08 alpha_mix =  0.700 |ddv_scf|^2 =  1.241E-13

      iter #  10 total cpu time : 10483.6 secs   av.it.:   8.7
      thresh= 3.523E-08 alpha_mix =  0.700 |ddv_scf|^2 =  2.548E-15

      iter #  11 total cpu time : 10516.7 secs   av.it.:   9.7
      thresh= 5.048E-09 alpha_mix =  0.700 |ddv_scf|^2 =  3.787E-16

      iter #  12 total cpu time : 10556.4 secs   av.it.:   9.7
      thresh= 1.946E-09 alpha_mix =  0.700 |ddv_scf|^2 =  5.810E-17

     End of self-consistent calculation

     Convergence has been achieved 
 
     Number of q in the star =   48
     List of q in the star:
          1  -0.757772228  -0.216506351  -0.324759526
          2   0.757772228  -0.216506351  -0.324759526
          3   0.757772228  -0.324759526  -0.216506351
          4  -0.757772228  -0.324759526  -0.216506351
          5  -0.216506351   0.757772228  -0.324759526
          6   0.216506351   0.757772228  -0.324759526
          7   0.757772228   0.216506351  -0.324759526
          8  -0.216506351  -0.757772228  -0.324759526
          9  -0.216506351   0.324759526   0.757772228
         10   0.216506351   0.324759526  -0.757772228
         11  -0.216506351  -0.324759526  -0.757772228
         12  -0.324759526   0.757772228   0.216506351
         13   0.324759526  -0.757772228   0.216506351
         14  -0.324759526  -0.757772228  -0.216506351
         15   0.757772228  -0.216506351   0.324759526
         16  -0.324759526  -0.216506351  -0.757772228
         17  -0.757772228   0.216506351   0.324759526
         18   0.216506351  -0.757772228   0.324759526
         19  -0.216506351   0.757772228   0.324759526
         20   0.324759526   0.216506351  -0.757772228
         21  -0.324759526   0.216506351   0.757772228
         22  -0.757772228   0.324759526   0.216506351
         23   0.757772228   0.324759526  -0.216506351
         24   0.757772228  -0.324759526   0.216506351
         25   0.757772228   0.324759526   0.216506351
         26  -0.757772228  -0.324759526   0.216506351
         27  -0.757772228   0.324759526  -0.216506351
         28   0.757772228   0.216506351   0.324759526
         29  -0.757772228  -0.216506351   0.324759526
         30   0.324759526   0.757772228  -0.216506351
         31   0.216506351  -0.757772228  -0.324759526
         32  -0.324759526   0.216506351  -0.757772228
         33   0.324759526  -0.216506351   0.757772228
         34   0.216506351   0.757772228   0.324759526
         35   0.324759526   0.216506351   0.757772228
         36  -0.324759526  -0.216506351   0.757772228
         37   0.324759526  -0.216506351  -0.757772228
         38  -0.216506351  -0.757772228   0.324759526
         39  -0.757772228   0.216506351  -0.324759526
         40   0.216506351  -0.324759526   0.757772228
         41   0.216506351   0.324759526   0.757772228
         42  -0.216506351   0.324759526  -0.757772228
         43   0.216506351  -0.324759526  -0.757772228
         44  -0.216506351  -0.324759526   0.757772228
         45   0.324759526   0.757772228   0.216506351
         46   0.324759526  -0.757772228  -0.216506351
         47  -0.324759526  -0.757772228   0.216506351
         48  -0.324759526   0.757772228  -0.216506351

     Diagonalizing the dynamical matrix

     q = (   -0.757772228  -0.216506351  -0.324759526 ) 

 **************************************************************************
     freq (    1) =       8.715795 [THz] =     290.727613 [cm-1]
     freq (    2) =       9.959263 [THz] =     332.205251 [cm-1]
     freq (    3) =      12.531927 [THz] =     418.020080 [cm-1]
     freq (    4) =      25.921679 [THz] =     864.654142 [cm-1]
     freq (    5) =      28.982902 [THz] =     966.765558 [cm-1]
     freq (    6) =      31.446437 [THz] =    1048.940242 [cm-1]
     freq (    7) =      31.921065 [THz] =    1064.772118 [cm-1]
     freq (    8) =      35.413592 [THz] =    1181.270266 [cm-1]
     freq (    9) =      37.498540 [THz] =    1250.816668 [cm-1]
     freq (   10) =      39.886549 [THz] =    1330.472074 [cm-1]
     freq (   11) =      40.463697 [THz] =    1349.723647 [cm-1]
     freq (   12) =      41.739385 [THz] =    1392.276015 [cm-1]
     freq (   13) =      42.946133 [THz] =    1432.528807 [cm-1]
     freq (   14) =      43.719083 [THz] =    1458.311621 [cm-1]
     freq (   15) =      43.976707 [THz] =    1466.905058 [cm-1]
     freq (   16) =      45.107521 [THz] =    1504.624958 [cm-1]
     freq (   17) =      46.624838 [THz] =    1555.237180 [cm-1]
     freq (   18) =      48.163166 [THz] =    1606.550295 [cm-1]
     freq (   19) =      50.498251 [THz] =    1684.440328 [cm-1]
     freq (   20) =      54.966545 [THz] =    1833.486568 [cm-1]
     freq (   21) =      58.149807 [THz] =    1939.668774 [cm-1]
 **************************************************************************

     Mode symmetry, C_1 (1)     point group:

     freq (   1-   1) =        290.7  [cm-1]   --> A                  
     freq (   2-   2) =        332.2  [cm-1]   --> A                  
     freq (   3-   3) =        418.0  [cm-1]   --> A                  
     freq (   4-   4) =        864.7  [cm-1]   --> A                  
     freq (   5-   5) =        966.8  [cm-1]   --> A                  
     freq (   6-   6) =       1048.9  [cm-1]   --> A                  
     freq (   7-   7) =       1064.8  [cm-1]   --> A                  
     freq (   8-   8) =       1181.3  [cm-1]   --> A                  
     freq (   9-   9) =       1250.8  [cm-1]   --> A                  
     freq (  10-  10) =       1330.5  [cm-1]   --> A                  
     freq (  11-  11) =       1349.7  [cm-1]   --> A                  
     freq (  12-  12) =       1392.3  [cm-1]   --> A                  
     freq (  13-  13) =       1432.5  [cm-1]   --> A                  
     freq (  14-  14) =       1458.3  [cm-1]   --> A                  
     freq (  15-  15) =       1466.9  [cm-1]   --> A                  
     freq (  16-  16) =       1504.6  [cm-1]   --> A                  
     freq (  17-  17) =       1555.2  [cm-1]   --> A                  
     freq (  18-  18) =       1606.6  [cm-1]   --> A                  
     freq (  19-  19) =       1684.4  [cm-1]   --> A                  
     freq (  20-  20) =       1833.5  [cm-1]   --> A                  
     freq (  21-  21) =       1939.7  [cm-1]   --> A                  
     electron-phonon interaction  ...

     Gaussian Broadening:   0.005 Ry, ngauss=   0
     DOS =  1.900675 states/spin/Ry/Unit Cell at Ef= 17.155196 eV
     lambda(    1)=  0.0757   gamma=   10.44 GHz
     lambda(    2)=  0.1463   gamma=   26.34 GHz
     lambda(    3)=  0.0619   gamma=   17.65 GHz
     lambda(    4)=  0.3109   gamma=  379.19 GHz
     lambda(    5)=  0.5710   gamma=  870.62 GHz
     lambda(    6)=  0.1730   gamma=  310.50 GHz
     lambda(    7)=  0.0822   gamma=  152.03 GHz
     lambda(    8)=  0.1332   gamma=  303.21 GHz
     lambda(    9)=  0.0858   gamma=  219.07 GHz
     lambda(   10)=  0.0148   gamma=   42.87 GHz
     lambda(   11)=  0.0024   gamma=    7.26 GHz
     lambda(   12)=  0.0075   gamma=   23.58 GHz
     lambda(   13)=  0.0031   gamma=   10.35 GHz
     lambda(   14)=  0.0079   gamma=   27.34 GHz
     lambda(   15)=  0.0241   gamma=   84.48 GHz
     lambda(   16)=  0.0063   gamma=   23.19 GHz
     lambda(   17)=  0.0205   gamma=   80.97 GHz
     lambda(   18)=  0.0049   gamma=   20.51 GHz
     lambda(   19)=  0.0352   gamma=  163.12 GHz
     lambda(   20)=  0.0099   gamma=   54.17 GHz
     lambda(   21)=  0.0272   gamma=  166.82 GHz
     Gaussian Broadening:   0.010 Ry, ngauss=   0
     DOS =  2.130656 states/spin/Ry/Unit Cell at Ef= 17.149400 eV
     lambda(    1)=  0.1336   gamma=   20.66 GHz
     lambda(    2)=  0.1485   gamma=   29.97 GHz
     lambda(    3)=  0.0501   gamma=   16.01 GHz
     lambda(    4)=  0.2951   gamma=  403.38 GHz
     lambda(    5)=  0.4001   gamma=  683.82 GHz
     lambda(    6)=  0.1835   gamma=  369.14 GHz
     lambda(    7)=  0.1220   gamma=  252.97 GHz
     lambda(    8)=  0.1465   gamma=  373.87 GHz
     lambda(    9)=  0.0668   gamma=  190.99 GHz
     lambda(   10)=  0.0098   gamma=   31.87 GHz
     lambda(   11)=  0.0064   gamma=   21.45 GHz
     lambda(   12)=  0.0072   gamma=   25.65 GHz
     lambda(   13)=  0.0035   gamma=   13.11 GHz
     lambda(   14)=  0.0106   gamma=   41.26 GHz
     lambda(   15)=  0.0208   gamma=   81.82 GHz
     lambda(   16)=  0.0038   gamma=   15.65 GHz
     lambda(   17)=  0.0159   gamma=   70.51 GHz
     lambda(   18)=  0.0068   gamma=   31.94 GHz
     lambda(   19)=  0.0301   gamma=  156.36 GHz
     lambda(   20)=  0.0084   gamma=   51.88 GHz
     lambda(   21)=  0.0215   gamma=  147.63 GHz
     Gaussian Broadening:   0.015 Ry, ngauss=   0
     DOS =  2.235086 states/spin/Ry/Unit Cell at Ef= 17.146382 eV
     lambda(    1)=  0.1498   gamma=   24.28 GHz
     lambda(    2)=  0.1483   gamma=   31.39 GHz
     lambda(    3)=  0.0465   gamma=   15.59 GHz
     lambda(    4)=  0.2934   gamma=  420.75 GHz
     lambda(    5)=  0.3729   gamma=  668.56 GHz
     lambda(    6)=  0.1935   gamma=  408.45 GHz
     lambda(    7)=  0.1518   gamma=  330.07 GHz
     lambda(    8)=  0.1571   gamma=  420.49 GHz
     lambda(    9)=  0.0714   gamma=  214.43 GHz
     lambda(   10)=  0.0095   gamma=   32.22 GHz
     lambda(   11)=  0.0085   gamma=   29.73 GHz
     lambda(   12)=  0.0077   gamma=   28.46 GHz
     lambda(   13)=  0.0045   gamma=   17.54 GHz
     lambda(   14)=  0.0131   gamma=   53.27 GHz
     lambda(   15)=  0.0235   gamma=   96.86 GHz
     lambda(   16)=  0.0039   gamma=   16.84 GHz
     lambda(   17)=  0.0172   gamma=   79.82 GHz
     lambda(   18)=  0.0071   gamma=   35.26 GHz
     lambda(   19)=  0.0298   gamma=  162.24 GHz
     lambda(   20)=  0.0088   gamma=   56.52 GHz
     lambda(   21)=  0.0180   gamma=  129.65 GHz
     Gaussian Broadening:   0.020 Ry, ngauss=   0
     DOS =  2.290454 states/spin/Ry/Unit Cell at Ef= 17.145317 eV
     lambda(    1)=  0.1557   gamma=   25.86 GHz
     lambda(    2)=  0.1510   gamma=   32.76 GHz
     lambda(    3)=  0.0457   gamma=   15.71 GHz
     lambda(    4)=  0.3057   gamma=  449.28 GHz
     lambda(    5)=  0.3668   gamma=  673.95 GHz
     lambda(    6)=  0.2061   gamma=  445.78 GHz
     lambda(    7)=  0.1724   gamma=  384.21 GHz
     lambda(    8)=  0.1625   gamma=  445.71 GHz
     lambda(    9)=  0.0808   gamma=  248.56 GHz
     lambda(   10)=  0.0101   gamma=   35.21 GHz
     lambda(   11)=  0.0097   gamma=   34.69 GHz
     lambda(   12)=  0.0082   gamma=   31.37 GHz
     lambda(   13)=  0.0058   gamma=   23.27 GHz
     lambda(   14)=  0.0154   gamma=   64.45 GHz
     lambda(   15)=  0.0281   gamma=  118.72 GHz
     lambda(   16)=  0.0043   gamma=   19.07 GHz
     lambda(   17)=  0.0187   gamma=   88.88 GHz
     lambda(   18)=  0.0073   gamma=   37.05 GHz
     lambda(   19)=  0.0317   gamma=  177.06 GHz
     lambda(   20)=  0.0095   gamma=   62.49 GHz
     lambda(   21)=  0.0174   gamma=  129.02 GHz
     Gaussian Broadening:   0.025 Ry, ngauss=   0
     DOS =  2.332190 states/spin/Ry/Unit Cell at Ef= 17.144758 eV
     lambda(    1)=  0.1602   gamma=   27.11 GHz
     lambda(    2)=  0.1541   gamma=   34.03 GHz
     lambda(    3)=  0.0461   gamma=   16.14 GHz
     lambda(    4)=  0.3199   gamma=  478.76 GHz
     lambda(    5)=  0.3709   gamma=  693.82 GHz
     lambda(    6)=  0.2172   gamma=  478.27 GHz
     lambda(    7)=  0.1861   gamma=  422.32 GHz
     lambda(    8)=  0.1669   gamma=  466.08 GHz
     lambda(    9)=  0.0878   gamma=  275.05 GHz
     lambda(   10)=  0.0108   gamma=   38.10 GHz
     lambda(   11)=  0.0104   gamma=   37.78 GHz
     lambda(   12)=  0.0088   gamma=   34.11 GHz
     lambda(   13)=  0.0067   gamma=   27.72 GHz
     lambda(   14)=  0.0170   gamma=   72.23 GHz
     lambda(   15)=  0.0313   gamma=  134.71 GHz
     lambda(   16)=  0.0047   gamma=   21.20 GHz
     lambda(   17)=  0.0199   gamma=   96.26 GHz
     lambda(   18)=  0.0076   gamma=   39.36 GHz
     lambda(   19)=  0.0336   gamma=  190.76 GHz
     lambda(   20)=  0.0101   gamma=   67.99 GHz
     lambda(   21)=  0.0177   gamma=  133.45 GHz
     Gaussian Broadening:   0.030 Ry, ngauss=   0
     DOS =  2.360595 states/spin/Ry/Unit Cell at Ef= 17.144134 eV
     lambda(    1)=  0.1631   gamma=   27.92 GHz
     lambda(    2)=  0.1557   gamma=   34.82 GHz
     lambda(    3)=  0.0467   gamma=   16.52 GHz
     lambda(    4)=  0.3321   gamma=  502.99 GHz
     lambda(    5)=  0.3754   gamma=  710.80 GHz
     lambda(    6)=  0.2250   gamma=  501.64 GHz
     lambda(    7)=  0.1940   gamma=  445.52 GHz
     lambda(    8)=  0.1692   gamma=  478.36 GHz
     lambda(    9)=  0.0914   gamma=  289.86 GHz
     lambda(   10)=  0.0112   gamma=   40.06 GHz
     lambda(   11)=  0.0107   gamma=   39.51 GHz
     lambda(   12)=  0.0092   gamma=   36.13 GHz
     lambda(   13)=  0.0073   gamma=   30.52 GHz
     lambda(   14)=  0.0178   gamma=   76.58 GHz
     lambda(   15)=  0.0328   gamma=  143.16 GHz
     lambda(   16)=  0.0050   gamma=   22.91 GHz
     lambda(   17)=  0.0206   gamma=  101.18 GHz
     lambda(   18)=  0.0080   gamma=   41.70 GHz
     lambda(   19)=  0.0347   gamma=  199.53 GHz
     lambda(   20)=  0.0106   gamma=   72.08 GHz
     lambda(   21)=  0.0180   gamma=  137.40 GHz
     Gaussian Broadening:   0.035 Ry, ngauss=   0
     DOS =  2.381114 states/spin/Ry/Unit Cell at Ef= 17.143351 eV
     lambda(    1)=  0.1648   gamma=   28.47 GHz
     lambda(    2)=  0.1563   gamma=   35.25 GHz
     lambda(    3)=  0.0471   gamma=   16.81 GHz
     lambda(    4)=  0.3428   gamma=  523.73 GHz
     lambda(    5)=  0.3780   gamma=  722.04 GHz
     lambda(    6)=  0.2309   gamma=  519.14 GHz
     lambda(    7)=  0.1985   gamma=  459.97 GHz
     lambda(    8)=  0.1701   gamma=  485.09 GHz
     lambda(    9)=  0.0931   gamma=  297.62 GHz
     lambda(   10)=  0.0114   gamma=   41.40 GHz
     lambda(   11)=  0.0109   gamma=   40.61 GHz
     lambda(   12)=  0.0095   gamma=   37.70 GHz
     lambda(   13)=  0.0077   gamma=   32.34 GHz
     lambda(   14)=  0.0182   gamma=   79.01 GHz
     lambda(   15)=  0.0335   gamma=  147.18 GHz
     lambda(   16)=  0.0053   gamma=   24.36 GHz
     lambda(   17)=  0.0211   gamma=  104.36 GHz
     lambda(   18)=  0.0083   gamma=   43.99 GHz
     lambda(   19)=  0.0354   gamma=  205.02 GHz
     lambda(   20)=  0.0110   gamma=   75.30 GHz
     lambda(   21)=  0.0183   gamma=  140.40 GHz
     Gaussian Broadening:   0.040 Ry, ngauss=   0
     DOS =  2.398900 states/spin/Ry/Unit Cell at Ef= 17.142416 eV
     lambda(    1)=  0.1662   gamma=   28.93 GHz
     lambda(    2)=  0.1563   gamma=   35.50 GHz
     lambda(    3)=  0.0474   gamma=   17.06 GHz
     lambda(    4)=  0.3531   gamma=  543.50 GHz
     lambda(    5)=  0.3793   gamma=  729.82 GHz
     lambda(    6)=  0.2359   gamma=  534.36 GHz
     lambda(    7)=  0.2016   gamma=  470.62 GHz
     lambda(    8)=  0.1705   gamma=  489.80 GHz
     lambda(    9)=  0.0940   gamma=  302.74 GHz
     lambda(   10)=  0.0117   gamma=   42.48 GHz
     lambda(   11)=  0.0111   gamma=   41.54 GHz
     lambda(   12)=  0.0098   gamma=   39.13 GHz
     lambda(   13)=  0.0080   gamma=   33.79 GHz
     lambda(   14)=  0.0184   gamma=   80.68 GHz
     lambda(   15)=  0.0337   gamma=  149.37 GHz
     lambda(   16)=  0.0055   gamma=   25.72 GHz
     lambda(   17)=  0.0214   gamma=  106.68 GHz
     lambda(   18)=  0.0087   gamma=   46.35 GHz
     lambda(   19)=  0.0358   gamma=  209.17 GHz
     lambda(   20)=  0.0113   gamma=   78.25 GHz
     lambda(   21)=  0.0185   gamma=  143.13 GHz
     Gaussian Broadening:   0.045 Ry, ngauss=   0
     DOS =  2.416850 states/spin/Ry/Unit Cell at Ef= 17.141341 eV
     lambda(    1)=  0.1677   gamma=   29.40 GHz
     lambda(    2)=  0.1559   gamma=   35.70 GHz
     lambda(    3)=  0.0477   gamma=   17.30 GHz
     lambda(    4)=  0.3634   gamma=  563.60 GHz
     lambda(    5)=  0.3798   gamma=  736.23 GHz
     lambda(    6)=  0.2407   gamma=  549.28 GHz
     lambda(    7)=  0.2041   gamma=  480.02 GHz
     lambda(    8)=  0.1709   gamma=  494.62 GHz
     lambda(    9)=  0.0948   gamma=  307.66 GHz
     lambda(   10)=  0.0118   gamma=   43.49 GHz
     lambda(   11)=  0.0112   gamma=   42.48 GHz
     lambda(   12)=  0.0101   gamma=   40.62 GHz
     lambda(   13)=  0.0083   gamma=   35.17 GHz
     lambda(   14)=  0.0186   gamma=   82.21 GHz
     lambda(   15)=  0.0338   gamma=  151.03 GHz
     lambda(   16)=  0.0058   gamma=   27.11 GHz
     lambda(   17)=  0.0217   gamma=  108.69 GHz
     lambda(   18)=  0.0091   gamma=   48.93 GHz
     lambda(   19)=  0.0362   gamma=  213.04 GHz
     lambda(   20)=  0.0117   gamma=   81.24 GHz
     lambda(   21)=  0.0187   gamma=  146.05 GHz
     Gaussian Broadening:   0.050 Ry, ngauss=   0
     DOS =  2.436152 states/spin/Ry/Unit Cell at Ef= 17.140123 eV
     lambda(    1)=  0.1694   gamma=   29.94 GHz
     lambda(    2)=  0.1555   gamma=   35.88 GHz
     lambda(    3)=  0.0480   gamma=   17.55 GHz
     lambda(    4)=  0.3739   gamma=  584.39 GHz
     lambda(    5)=  0.3798   gamma=  742.27 GHz
     lambda(    6)=  0.2454   gamma=  564.56 GHz
     lambda(    7)=  0.2063   gamma=  489.12 GHz
     lambda(    8)=  0.1715   gamma=  500.38 GHz
     lambda(    9)=  0.0958   gamma=  313.37 GHz
     lambda(   10)=  0.0120   gamma=   44.50 GHz
     lambda(   11)=  0.0114   gamma=   43.51 GHz
     lambda(   12)=  0.0104   gamma=   42.25 GHz
     lambda(   13)=  0.0085   gamma=   36.61 GHz
     lambda(   14)=  0.0189   gamma=   83.87 GHz
     lambda(   15)=  0.0339   gamma=  152.68 GHz
     lambda(   16)=  0.0060   gamma=   28.60 GHz
     lambda(   17)=  0.0219   gamma=  110.69 GHz
     lambda(   18)=  0.0096   gamma=   51.85 GHz
     lambda(   19)=  0.0366   gamma=  217.01 GHz
     lambda(   20)=  0.0120   gamma=   84.36 GHz
     lambda(   21)=  0.0190   gamma=  149.39 GHz
 
 
     Number of q in the star =   48
     List of q in the star:
          1  -0.757772228  -0.216506351  -0.324759526
          2   0.757772228  -0.216506351  -0.324759526
          3   0.757772228  -0.324759526  -0.216506351
          4  -0.757772228  -0.324759526  -0.216506351
          5  -0.216506351   0.757772228  -0.324759526
          6   0.216506351   0.757772228  -0.324759526
          7   0.757772228   0.216506351  -0.324759526
          8  -0.216506351  -0.757772228  -0.324759526
          9  -0.216506351   0.324759526   0.757772228
         10   0.216506351   0.324759526  -0.757772228
         11  -0.216506351  -0.324759526  -0.757772228
         12  -0.324759526   0.757772228   0.216506351
         13   0.324759526  -0.757772228   0.216506351
         14  -0.324759526  -0.757772228  -0.216506351
         15   0.757772228  -0.216506351   0.324759526
         16  -0.324759526  -0.216506351  -0.757772228
         17  -0.757772228   0.216506351   0.324759526
         18   0.216506351  -0.757772228   0.324759526
         19  -0.216506351   0.757772228   0.324759526
         20   0.324759526   0.216506351  -0.757772228
         21  -0.324759526   0.216506351   0.757772228
         22  -0.757772228   0.324759526   0.216506351
         23   0.757772228   0.324759526  -0.216506351
         24   0.757772228  -0.324759526   0.216506351
         25   0.757772228   0.324759526   0.216506351
         26  -0.757772228  -0.324759526   0.216506351
         27  -0.757772228   0.324759526  -0.216506351
         28   0.757772228   0.216506351   0.324759526
         29  -0.757772228  -0.216506351   0.324759526
         30   0.324759526   0.757772228  -0.216506351
         31   0.216506351  -0.757772228  -0.324759526
         32  -0.324759526   0.216506351  -0.757772228
         33   0.324759526  -0.216506351   0.757772228
         34   0.216506351   0.757772228   0.324759526
         35   0.324759526   0.216506351   0.757772228
         36  -0.324759526  -0.216506351   0.757772228
         37   0.324759526  -0.216506351  -0.757772228
         38  -0.216506351  -0.757772228   0.324759526
         39  -0.757772228   0.216506351  -0.324759526
         40   0.216506351  -0.324759526   0.757772228
         41   0.216506351   0.324759526   0.757772228
         42  -0.216506351   0.324759526  -0.757772228
         43   0.216506351  -0.324759526  -0.757772228
         44  -0.216506351  -0.324759526   0.757772228
         45   0.324759526   0.757772228   0.216506351
         46   0.324759526  -0.757772228  -0.216506351
         47  -0.324759526  -0.757772228   0.216506351
         48  -0.324759526   0.757772228  -0.216506351
 
     init_run     :      0.08s CPU      0.79s WALL (       1 calls)
     electrons    :    181.84s CPU    197.25s WALL (       1 calls)

     Called by init_run:
     wfcinit      :      0.00s CPU      0.60s WALL (       1 calls)
     potinit      :      0.01s CPU      0.11s WALL (       1 calls)
     hinit0       :      0.03s CPU      0.04s WALL (       1 calls)

     Called by electrons:
     c_bands      :    181.78s CPU    197.19s WALL (       1 calls)
     v_of_rho     :      0.01s CPU      0.05s WALL (       2 calls)
     newd         :      0.00s CPU      0.05s WALL (       2 calls)

     Called by c_bands:
     init_us_2    :      8.84s CPU      9.82s WALL (  309248 calls)
     cegterg      :     32.48s CPU     35.03s WALL (    2076 calls)

     Called by *egterg:
     cdiaghg      :     11.04s CPU     11.82s WALL (   32428 calls)
     h_psi        :   3493.86s CPU   4170.01s WALL ( 3716290 calls)
     s_psi        :     76.76s CPU     87.09s WALL ( 7658172 calls)
     g_psi        :      0.10s CPU      0.11s WALL (   30380 calls)

     Called by h_psi:
     h_psi:calbec :     66.89s CPU     75.22s WALL ( 3716290 calls)
     vloc_psi     :   3358.08s CPU   4016.90s WALL ( 3716290 calls)
     add_vuspsi   :     37.02s CPU     41.94s WALL ( 3716290 calls)

     General routines
     calbec       :    171.91s CPU    188.73s WALL ( 8040124 calls)
     fft          :      2.28s CPU      3.01s WALL (    4775 calls)
     ffts         :      1.14s CPU      1.26s WALL (   22497 calls)
     fftw         :   4728.11s CPU   5706.87s WALL (49562451 calls)
     interpolate  :      0.21s CPU      0.24s WALL (     531 calls)
     davcio       :     59.00s CPU   1559.93s WALL ( 1376292 calls)
 
     Parallel routines
 
     PHONON       :      2h10m CPU      2h56m WALL

     INITIALIZATION: 
     phq_setup    :      0.01s CPU      0.05s WALL (       1 calls)
     phq_init     :     36.95s CPU     43.00s WALL (       1 calls)
 
     phq_init     :     36.95s CPU     43.00s WALL (       1 calls)
     set_drhoc    :      0.04s CPU      0.04s WALL (       3 calls)
     init_vloc    :      0.00s CPU      0.04s WALL (       2 calls)
     init_us_1    :      0.06s CPU      0.15s WALL (       2 calls)
     newd         :      0.00s CPU      0.05s WALL (       2 calls)
     dvanqq       :      0.17s CPU      0.18s WALL (       1 calls)
     drho         :     20.85s CPU     24.68s WALL (       1 calls)
 
     DYNAMICAL MATRIX:
     dynmat0      :      7.62s CPU      9.05s WALL (       1 calls)
     phqscf       :   7600.87s CPU  10318.30s WALL (       1 calls)
     dynmatrix    :      0.03s CPU      0.71s WALL (       1 calls)
 
     phqscf       :   7600.87s CPU  10318.30s WALL (       1 calls)
     solve_linter :   7560.26s CPU  10267.08s WALL (      21 calls)
     drhodv       :     40.58s CPU     46.92s WALL (      21 calls)
 
     dynmat0      :      7.62s CPU      9.05s WALL (       1 calls)
     dynmat_us    :      7.58s CPU      8.98s WALL (       1 calls)
     d2ionq       :      0.01s CPU      0.01s WALL (       1 calls)
     dynmatcc     :      0.03s CPU      0.03s WALL (       1 calls)
 
     dynmat_us    :      7.58s CPU      8.98s WALL (       1 calls)
     addusdynmat  :      0.00s CPU      0.00s WALL (       1 calls)
 
     phqscf       :   7600.87s CPU  10318.30s WALL (       1 calls)
     solve_linter :   7560.26s CPU  10267.08s WALL (      21 calls)
 
     solve_linter :   7560.26s CPU  10267.08s WALL (      21 calls)
     dvqpsi_us    :     32.56s CPU     35.38s WALL (   21504 calls)
     ortho        :     63.12s CPU     67.15s WALL (  260096 calls)
     cgsolve      :   3749.96s CPU   4460.83s WALL (  260096 calls)
     incdrhoscf   :    767.20s CPU    945.96s WALL (  260096 calls)
     addusddens   :      4.25s CPU      5.21s WALL (     275 calls)
     vpsifft      :    759.20s CPU    920.94s WALL (  260096 calls)
     dv_of_drho   :      0.65s CPU      0.70s WALL (     254 calls)
     mix_pot      :     11.97s CPU     60.36s WALL (     254 calls)
     newdq        :      3.47s CPU      3.49s WALL (     254 calls)
     adddvscf     :      8.41s CPU      9.56s WALL (  260096 calls)
     drhodvus     :     55.05s CPU     69.29s WALL (      21 calls)
 
     dvqpsi_us    :     32.56s CPU     35.38s WALL (   21504 calls)
     dvqpsi_us_on :     12.13s CPU     12.87s WALL (   21504 calls)
 
     cgsolve      :   3749.96s CPU   4460.83s WALL (  260096 calls)
     ch_psi       :   3704.68s CPU   4408.98s WALL ( 3681786 calls)
 
     ch_psi       :   3704.68s CPU   4408.98s WALL ( 3681786 calls)
     h_psi        :   3493.86s CPU   4170.01s WALL ( 3716290 calls)
     last         :    150.65s CPU    170.22s WALL ( 3681786 calls)
 
     h_psi        :   3493.86s CPU   4170.01s WALL ( 3716290 calls)
     add_vuspsi   :     37.02s CPU     41.94s WALL ( 3716290 calls)
 
     incdrhoscf   :    767.20s CPU    945.96s WALL (  260096 calls)
     addusdbec    :      8.26s CPU      9.18s WALL (  281600 calls)
 
     drhodvus     :     55.05s CPU     69.29s WALL (      21 calls)
 
      Electron-phonon coupling
     elphel       :    153.98s CPU    230.10s WALL (      21 calls)
     elphsum      :     31.81s CPU     35.57s WALL (       1 calls)
 
      General routines
     calbec       :    171.91s CPU    188.73s WALL ( 8040124 calls)
     fft          :      2.28s CPU      3.01s WALL (    4775 calls)
     ffts         :      1.14s CPU      1.26s WALL (   22497 calls)
     fftw         :   4728.11s CPU   5706.87s WALL (49562451 calls)
     davcio       :     59.00s CPU   1559.93s WALL ( 1376292 calls)
     write_rec    :      0.20s CPU     25.63s WALL (     275 calls)
 
 
     PHONON       :      2h10m CPU      2h56m WALL

 
   This run was terminated on:  11:57:25  31Jul2022            

=------------------------------------------------------------------------------=
   JOB DONE.
=------------------------------------------------------------------------------=
