
     Program PHONON v.6.8 starts on 31Jul2022 at  7:52:33 

     This program is part of the open-source Quantum ESPRESSO suite
     for quantum simulation of materials; please cite
         "P. Giannozzi et al., J. Phys.:Condens. Matter 21 395502 (2009);
         "P. Giannozzi et al., J. Phys.:Condens. Matter 29 465901 (2017);
         "P. Giannozzi et al., J. Chem. Phys. 152 154105 (2020);
          URL http://www.quantum-espresso.org", 
     in publications or presentations arising from this work. More details at
     http://www.quantum-espresso.org/quote

     Parallel version (MPI), running on    48 processors

     MPI processes distributed on     1 nodes
     K-points division:     npool     =       4
     R & G space division:  proc/nbgrp/npool/nimage =      12
     188925 MiB available memory on the printing compute node when the environment starts
 
     Waiting for input...
     Reading input from standard input

     Reading xml data from directory:

     ./tmp/Ca1H6.save/

     IMPORTANT: XC functional enforced from input :
     Exchange-correlation= PBE
                           (   1   4   3   4   0   0   0)
     Any further DFT definition will be discarded
     Please, verify this is what you really want

 
     Parallelization info
     --------------------
     sticks:   dense  smooth     PW     G-vecs:    dense   smooth      PW
     Min         139      46     17                 3602      698     155
     Max         140      47     18                 3604      701     157
     Sum        1669     557    205                43227     8391    1865
 
     Using Slab Decomposition
 
     Reading collected, re-writing distributed wavefunctions


     Dynamical matrices for ( 8, 8, 8)  uniform grid of q-points
     (  29 q-points):
       N         xq(1)         xq(2)         xq(3) 
       1   0.000000000   0.000000000   0.000000000
       2   0.108253175   0.108253175   0.000000000
       3   0.216506351   0.216506351   0.000000000
       4   0.324759526   0.324759526   0.000000000
       5  -0.433012702  -0.433012702   0.000000000
       6   0.216506351   0.108253175   0.108253175
       7   0.324759526   0.216506351   0.108253175
       8   0.433012702   0.324759526   0.108253175
       9   0.433012702   0.216506351   0.216506351
      10   0.541265877   0.324759526   0.216506351
      11   0.216506351   0.216506351   0.216506351
      12   0.324759526   0.324759526   0.216506351
      13   0.433012702   0.433012702   0.216506351
      14  -0.000000000  -0.000000000   0.216506351
      15   0.433012702   0.324759526   0.324759526
      16  -0.000000000  -0.108253175   0.324759526
      17  -0.000000000  -0.216506351   0.433012702
      18   0.108253175  -0.108253175   0.433012702
      19  -0.866025404  -0.324759526  -0.324759526
      20  -0.757772228  -0.216506351  -0.324759526
      21  -0.649519053  -0.216506351  -0.216506351
      22   0.433012702   0.433012702   0.433012702
      23  -0.000000000  -0.000000000   0.433012702
      24  -0.000000000  -0.108253175   0.541265877
      25  -0.866025404  -0.216506351  -0.216506351
      26  -0.757772228  -0.108253175  -0.216506351
      27  -0.000000000  -0.000000000   0.649519053
      28  -0.866025404  -0.108253175  -0.108253175
      29  -0.866025404  -0.866025404  -0.866025404

     Saving dvscf to file. Distribute only q points, not irreducible represetations.

     Calculation of q =    0.5412659   0.3247595   0.2165064

     Subspace diagonalization in iterative solution of the eigenvalue problem:
     a serial algorithm will be used

 
     Parallelization info
     --------------------
     sticks:   dense  smooth     PW     G-vecs:    dense   smooth      PW
     Min         139      46     17                 3602      698     162
     Max         140      47     18                 3604      701     164
     Sum        1669     557    213                43227     8391    1961
 
     Using Slab Decomposition
 

     Title: 
     Electron-phonon coefficients for Ca1H6                                     


     bravais-lattice index     =            0
     lattice parameter (alat)  =       5.5613  a.u.
     unit-cell volume          =     132.4087 (a.u.)^3
     number of atoms/cell      =            7
     number of atomic types    =            2
     number of electrons       =        16.00
     number of Kohn-Sham states=           12
     kinetic-energy cutoff     =      60.0000  Ry
     charge density cutoff     =     720.0000  Ry
     Exchange-correlation= PBE
                           (   1   4   3   4   0   0   0)

     celldm(1)=   5.561340  celldm(2)=   0.000000  celldm(3)=   0.000000
     celldm(4)=   0.000000  celldm(5)=   0.000000  celldm(6)=   0.000000

     crystal axes: (cart. coord. in units of alat)
               a(1) = (  -0.577350   0.577350   0.577350 )  
               a(2) = (   0.577350  -0.577350   0.577350 )  
               a(3) = (   0.577350   0.577350  -0.577350 )  

     reciprocal axes: (cart. coord. in units 2 pi/alat)
               b(1) = ( -0.000000  0.866025  0.866025 )  
               b(2) = (  0.866025 -0.000000  0.866025 )  
               b(3) = (  0.866025  0.866025  0.000000 )  


     PseudoPot. # 1 for Ca read from file:
     /work/home/mayuan/code/my_script/scripts_tests/out2/200.0/pp/ca_pbe_v1.uspp.F.UPF
     MD5 check sum: 403a4c14b9e4d4dfdc3024c9a3812218
     Pseudo is Ultrasoft + core correction, Zval = 10.0
     Generated by new atomic code, or converted to UPF format
     Using radial grid of  845 points,  6 beta functions with: 
                l(1) =   0
                l(2) =   0
                l(3) =   1
                l(4) =   1
                l(5) =   2
                l(6) =   2
     Q(r) pseudized with  8 coefficients,  rinner =    1.500   1.500   1.500
                                                       1.500   1.500

     PseudoPot. # 2 for H  read from file:
     /work/home/mayuan/code/my_script/scripts_tests/out2/200.0/pp/h_pbe_v1.uspp.F.UPF
     MD5 check sum: 3408e3ff4ec8b0a4e358431e7e038a48
     Pseudo is Ultrasoft, Zval =  1.0
     Generated by new atomic code, or converted to UPF format
     Using radial grid of  615 points,  2 beta functions with: 
                l(1) =   0
                l(2) =   0
     Q(r) pseudized with  8 coefficients,  rinner =    0.700

     atomic species   valence    mass     pseudopotential
        Ca            10.00    40.07800     Ca( 1.00)
        H              1.00     1.00794     H ( 1.00)

     48 Sym. Ops., with inversion, found



   Cartesian axes

     site n.     atom                  positions (alat units)
         1           Ca  tau(   1) = (   0.0000000   0.0000000   0.0000000  )
         2           H   tau(   2) = (   0.2886751   0.0000000   0.5773503  )
         3           H   tau(   3) = (   0.2886751   0.5773503   0.0000000  )
         4           H   tau(   4) = (   0.5773503   0.2886751   0.0000000  )
         5           H   tau(   5) = (   0.0000000   0.2886751   0.5773503  )
         6           H   tau(   6) = (   0.0000000   0.5773503   0.2886751  )
         7           H   tau(   7) = (   0.5773503   0.0000000   0.2886751  )

     number of k points=  4352  Methfessel-Paxton smearing, width (Ry)=  0.0200

     Number of k-points >= 100: set verbosity='high' to print them.

     Dense  grid:    43227 G-vectors     FFT dimensions: (  48,  48,  48)

     Smooth grid:     8391 G-vectors     FFT dimensions: (  27,  27,  27)

     Estimated max dynamical RAM per process >       8.38 MB

     Estimated total dynamical RAM >     402.25 MB

     The potential is recalculated from file :
     ./tmp/_ph0/Ca1H6.q_10/Ca1H6.save/charge-density

     Starting wfcs are   16 atomic wfcs

     Band Structure Calculation
     Davidson diagonalization with overlap

     ethr =  6.25E-11,  avg # of iterations = 15.0

     total cpu time spent up to now is       84.2 secs

     End of band structure calculation

     Number of k-points >= 100: set verbosity='high' to print the bands.

     the Fermi energy is    17.0980 ev

     Writing output data file ./tmp/_ph0/Ca1H6.q_10/Ca1H6.save/

     Electron-phonon coefficients for Ca1H6                                     

     bravais-lattice index     =            0
     lattice parameter (alat)  =       5.5613  a.u.
     unit-cell volume          =     132.4087 (a.u.)^3
     number of atoms/cell      =            7
     number of atomic types    =            2
     kinetic-energy cut-off    =      60.0000  Ry
     charge density cut-off    =     720.0000  Ry
     convergence threshold     =      1.0E-16
     beta                      =       0.7000
     number of iterations used =            4
     Exchange-correlation= PBE
                           (   1   4   3   4   0   0   0)


     celldm(1)=    5.56134  celldm(2)=    0.00000  celldm(3)=    0.00000
     celldm(4)=    0.00000  celldm(5)=    0.00000  celldm(6)=    0.00000

     crystal axes: (cart. coord. in units of alat)
               a(1) = ( -0.5774  0.5774  0.5774 )  
               a(2) = (  0.5774 -0.5774  0.5774 )  
               a(3) = (  0.5774  0.5774 -0.5774 )  

     reciprocal axes: (cart. coord. in units 2 pi/alat)
               b(1) = ( -0.0000  0.8660  0.8660 )  
               b(2) = (  0.8660 -0.0000  0.8660 )  
               b(3) = (  0.8660  0.8660  0.0000 )  


     Atoms inside the unit cell: 

     Cartesian axes

     site n.  atom      mass           positions (alat units)
        1     Ca  40.0780   tau(    1) = (    0.00000    0.00000    0.00000  )
        2     H    1.0079   tau(    2) = (    0.28868    0.00000    0.57735  )
        3     H    1.0079   tau(    3) = (    0.28868    0.57735    0.00000  )
        4     H    1.0079   tau(    4) = (    0.57735    0.28868    0.00000  )
        5     H    1.0079   tau(    5) = (    0.00000    0.28868    0.57735  )
        6     H    1.0079   tau(    6) = (    0.00000    0.57735    0.28868  )
        7     H    1.0079   tau(    7) = (    0.57735    0.00000    0.28868  )

     Computing dynamical matrix for 
                    q = (   0.5412659   0.3247595   0.2165064 )
 
      2 Sym.Ops. (no q -> -q+G )


     G cutoff =  564.0682  (   3604 G-vectors)     FFT grid: ( 48, 48, 48)
     G cutoff =  188.0227  (    699 G-vectors)  smooth grid: ( 27, 27, 27)

     number of k points=  4352  Methfessel-Paxton smearing, width (Ry)=  0.0200

     PseudoPot. # 1 for Ca read from file:
     /work/home/mayuan/code/my_script/scripts_tests/out2/200.0/pp/ca_pbe_v1.uspp.F.UPF
     MD5 check sum: 403a4c14b9e4d4dfdc3024c9a3812218
     Pseudo is Ultrasoft + core correction, Zval = 10.0
     Generated by new atomic code, or converted to UPF format
     Using radial grid of  845 points,  6 beta functions with: 
                l(1) =   0
                l(2) =   0
                l(3) =   1
                l(4) =   1
                l(5) =   2
                l(6) =   2
     Q(r) pseudized with  8 coefficients,  rinner =    1.500   1.500   1.500
                                                       1.500   1.500

     PseudoPot. # 2 for H  read from file:
     /work/home/mayuan/code/my_script/scripts_tests/out2/200.0/pp/h_pbe_v1.uspp.F.UPF
     MD5 check sum: 3408e3ff4ec8b0a4e358431e7e038a48
     Pseudo is Ultrasoft, Zval =  1.0
     Generated by new atomic code, or converted to UPF format
     Using radial grid of  615 points,  2 beta functions with: 
                l(1) =   0
                l(2) =   0
     Q(r) pseudized with  8 coefficients,  rinner =    0.700

     Mode symmetry, C_s (m)     point group:


     Atomic displacements:
     There are   21 irreducible representations

     Representation     1      1 modes -  To be done

     Representation     2      1 modes -  To be done

     Representation     3      1 modes -  To be done

     Representation     4      1 modes -  To be done

     Representation     5      1 modes -  To be done

     Representation     6      1 modes -  To be done

     Representation     7      1 modes -  To be done

     Representation     8      1 modes -  To be done

     Representation     9      1 modes -  To be done

     Representation    10      1 modes -  To be done

     Representation    11      1 modes -  To be done

     Representation    12      1 modes -  To be done

     Representation    13      1 modes -  To be done

     Representation    14      1 modes -  To be done

     Representation    15      1 modes -  To be done

     Representation    16      1 modes -  To be done

     Representation    17      1 modes -  To be done

     Representation    18      1 modes -  To be done

     Representation    19      1 modes -  To be done

     Representation    20      1 modes -  To be done

     Representation    21      1 modes -  To be done



     Alpha used in Ewald sum =   2.8000
     PHONON       :   1m28.75s CPU   1m47.15s WALL



     Representation #   1 mode #   1

     Self-consistent Calculation

      iter #   1 total cpu time :   116.3 secs   av.it.:   4.2
      thresh= 1.000E-02 alpha_mix =  0.700 |ddv_scf|^2 =  1.523E-06

      iter #   2 total cpu time :   134.8 secs   av.it.:   9.6
      thresh= 1.234E-04 alpha_mix =  0.700 |ddv_scf|^2 =  2.154E-06

      iter #   3 total cpu time :   158.4 secs   av.it.:   8.8
      thresh= 1.468E-04 alpha_mix =  0.700 |ddv_scf|^2 =  7.812E-09

      iter #   4 total cpu time :   176.3 secs   av.it.:   9.3
      thresh= 8.838E-06 alpha_mix =  0.700 |ddv_scf|^2 =  5.662E-10

      iter #   5 total cpu time :   201.1 secs   av.it.:   9.3
      thresh= 2.380E-06 alpha_mix =  0.700 |ddv_scf|^2 =  9.928E-12

      iter #   6 total cpu time :   222.9 secs   av.it.:   9.7
      thresh= 3.151E-07 alpha_mix =  0.700 |ddv_scf|^2 =  7.889E-13

      iter #   7 total cpu time :   243.5 secs   av.it.:   9.6
      thresh= 8.882E-08 alpha_mix =  0.700 |ddv_scf|^2 =  1.735E-14

      iter #   8 total cpu time :   266.9 secs   av.it.:   9.9
      thresh= 1.317E-08 alpha_mix =  0.700 |ddv_scf|^2 =  1.093E-15

      iter #   9 total cpu time :   287.4 secs   av.it.:   9.8
      thresh= 3.306E-09 alpha_mix =  0.700 |ddv_scf|^2 =  1.798E-16

      iter #  10 total cpu time :   319.4 secs   av.it.:   9.6
      thresh= 1.341E-09 alpha_mix =  0.700 |ddv_scf|^2 =  7.760E-17

     End of self-consistent calculation

     Convergence has been achieved 


     Representation #   2 mode #   2

     Self-consistent Calculation

      iter #   1 total cpu time :   334.9 secs   av.it.:   4.1
      thresh= 1.000E-02 alpha_mix =  0.700 |ddv_scf|^2 =  3.432E-07

      iter #   2 total cpu time :   355.1 secs   av.it.:   9.7
      thresh= 5.858E-05 alpha_mix =  0.700 |ddv_scf|^2 =  3.161E-07

      iter #   3 total cpu time :   370.6 secs   av.it.:   8.9
      thresh= 5.622E-05 alpha_mix =  0.700 |ddv_scf|^2 =  9.291E-09

      iter #   4 total cpu time :   390.3 secs   av.it.:   9.3
      thresh= 9.639E-06 alpha_mix =  0.700 |ddv_scf|^2 =  2.850E-10

      iter #   5 total cpu time :   402.6 secs   av.it.:   9.6
      thresh= 1.688E-06 alpha_mix =  0.700 |ddv_scf|^2 =  2.950E-11

      iter #   6 total cpu time :   421.9 secs   av.it.:   9.5
      thresh= 5.431E-07 alpha_mix =  0.700 |ddv_scf|^2 =  1.867E-12

      iter #   7 total cpu time :   439.1 secs   av.it.:   9.6
      thresh= 1.366E-07 alpha_mix =  0.700 |ddv_scf|^2 =  3.725E-14

      iter #   8 total cpu time :   460.6 secs   av.it.:   9.8
      thresh= 1.930E-08 alpha_mix =  0.700 |ddv_scf|^2 =  2.389E-15

      iter #   9 total cpu time :   476.9 secs   av.it.:   9.8
      thresh= 4.888E-09 alpha_mix =  0.700 |ddv_scf|^2 =  2.661E-16

      iter #  10 total cpu time :   496.3 secs   av.it.:   9.4
      thresh= 1.631E-09 alpha_mix =  0.700 |ddv_scf|^2 =  6.322E-17

     End of self-consistent calculation

     Convergence has been achieved 


     Representation #   3 mode #   3

     Self-consistent Calculation

      iter #   1 total cpu time :   512.5 secs   av.it.:   4.1
      thresh= 1.000E-02 alpha_mix =  0.700 |ddv_scf|^2 =  8.998E-07

      iter #   2 total cpu time :   526.8 secs   av.it.:   9.7
      thresh= 9.486E-05 alpha_mix =  0.700 |ddv_scf|^2 =  1.072E-06

      iter #   3 total cpu time :   544.2 secs   av.it.:   8.9
      thresh= 1.036E-04 alpha_mix =  0.700 |ddv_scf|^2 =  1.003E-08

      iter #   4 total cpu time :   555.4 secs   av.it.:   9.4
      thresh= 1.002E-05 alpha_mix =  0.700 |ddv_scf|^2 =  6.624E-10

      iter #   5 total cpu time :   573.8 secs   av.it.:   9.4
      thresh= 2.574E-06 alpha_mix =  0.700 |ddv_scf|^2 =  1.793E-11

      iter #   6 total cpu time :   591.0 secs   av.it.:   9.7
      thresh= 4.235E-07 alpha_mix =  0.700 |ddv_scf|^2 =  7.935E-13

      iter #   7 total cpu time :   613.0 secs   av.it.:   9.6
      thresh= 8.908E-08 alpha_mix =  0.700 |ddv_scf|^2 =  2.067E-14

      iter #   8 total cpu time :   626.3 secs   av.it.:   9.9
      thresh= 1.438E-08 alpha_mix =  0.700 |ddv_scf|^2 =  1.610E-15

      iter #   9 total cpu time :   644.5 secs   av.it.:   9.8
      thresh= 4.013E-09 alpha_mix =  0.700 |ddv_scf|^2 =  5.509E-16

      iter #  10 total cpu time :   661.9 secs   av.it.:   9.1
      thresh= 2.347E-09 alpha_mix =  0.700 |ddv_scf|^2 =  6.631E-17

     End of self-consistent calculation

     Convergence has been achieved 


     Representation #   4 mode #   4

     Self-consistent Calculation

      iter #   1 total cpu time :   676.4 secs   av.it.:   4.1
      thresh= 1.000E-02 alpha_mix =  0.700 |ddv_scf|^2 =  8.910E-07

      iter #   2 total cpu time :   692.7 secs   av.it.:   9.6
      thresh= 9.439E-05 alpha_mix =  0.700 |ddv_scf|^2 =  1.210E-06

      iter #   3 total cpu time :   703.8 secs   av.it.:   8.7
      thresh= 1.100E-04 alpha_mix =  0.700 |ddv_scf|^2 =  4.790E-09

      iter #   4 total cpu time :   721.0 secs   av.it.:   9.5
      thresh= 6.921E-06 alpha_mix =  0.700 |ddv_scf|^2 =  3.978E-10

      iter #   5 total cpu time :   735.4 secs   av.it.:   9.5
      thresh= 1.995E-06 alpha_mix =  0.700 |ddv_scf|^2 =  3.202E-11

      iter #   6 total cpu time :   756.2 secs   av.it.:   9.5
      thresh= 5.659E-07 alpha_mix =  0.700 |ddv_scf|^2 =  1.876E-12

      iter #   7 total cpu time :   774.9 secs   av.it.:   9.6
      thresh= 1.370E-07 alpha_mix =  0.700 |ddv_scf|^2 =  2.420E-14

      iter #   8 total cpu time :   792.5 secs   av.it.:   9.9
      thresh= 1.556E-08 alpha_mix =  0.700 |ddv_scf|^2 =  1.092E-15

      iter #   9 total cpu time :   808.6 secs   av.it.:  10.0
      thresh= 3.305E-09 alpha_mix =  0.700 |ddv_scf|^2 =  3.388E-16

      iter #  10 total cpu time :   825.4 secs   av.it.:   9.4
      thresh= 1.841E-09 alpha_mix =  0.700 |ddv_scf|^2 =  7.008E-17

     End of self-consistent calculation

     Convergence has been achieved 


     Representation #   5 mode #   5

     Self-consistent Calculation

      iter #   1 total cpu time :   848.1 secs   av.it.:   4.1
      thresh= 1.000E-02 alpha_mix =  0.700 |ddv_scf|^2 =  5.531E-07

      iter #   2 total cpu time :   871.7 secs   av.it.:   9.8
      thresh= 7.437E-05 alpha_mix =  0.700 |ddv_scf|^2 =  5.560E-07

      iter #   3 total cpu time :   887.5 secs   av.it.:   9.0
      thresh= 7.457E-05 alpha_mix =  0.700 |ddv_scf|^2 =  8.601E-09

      iter #   4 total cpu time :   912.9 secs   av.it.:   9.3
      thresh= 9.274E-06 alpha_mix =  0.700 |ddv_scf|^2 =  8.890E-10

      iter #   5 total cpu time :   932.8 secs   av.it.:   9.3
      thresh= 2.982E-06 alpha_mix =  0.700 |ddv_scf|^2 =  1.723E-11

      iter #   6 total cpu time :   951.6 secs   av.it.:   9.7
      thresh= 4.151E-07 alpha_mix =  0.700 |ddv_scf|^2 =  1.170E-12

      iter #   7 total cpu time :   966.5 secs   av.it.:   9.6
      thresh= 1.082E-07 alpha_mix =  0.700 |ddv_scf|^2 =  2.559E-14

      iter #   8 total cpu time :   988.3 secs   av.it.:   9.8
      thresh= 1.600E-08 alpha_mix =  0.700 |ddv_scf|^2 =  1.337E-15

      iter #   9 total cpu time :  1007.2 secs   av.it.:   9.9
      thresh= 3.657E-09 alpha_mix =  0.700 |ddv_scf|^2 =  2.384E-16

      iter #  10 total cpu time :  1025.6 secs   av.it.:   9.6
      thresh= 1.544E-09 alpha_mix =  0.700 |ddv_scf|^2 =  7.186E-17

     End of self-consistent calculation

     Convergence has been achieved 


     Representation #   6 mode #   6

     Self-consistent Calculation

      iter #   1 total cpu time :  1040.9 secs   av.it.:   6.7
      thresh= 1.000E-02 alpha_mix =  0.700 |ddv_scf|^2 =  5.655E-05

      iter #   2 total cpu time :  1054.4 secs   av.it.:   9.6
      thresh= 7.520E-04 alpha_mix =  0.700 |ddv_scf|^2 =  6.607E-05

      iter #   3 total cpu time :  1071.1 secs   av.it.:   8.8
      thresh= 8.128E-04 alpha_mix =  0.700 |ddv_scf|^2 =  6.925E-07

      iter #   4 total cpu time :  1083.7 secs   av.it.:   9.2
      thresh= 8.321E-05 alpha_mix =  0.700 |ddv_scf|^2 =  2.417E-08

      iter #   5 total cpu time :  1105.0 secs   av.it.:   9.4
      thresh= 1.555E-05 alpha_mix =  0.700 |ddv_scf|^2 =  5.158E-10

      iter #   6 total cpu time :  1119.9 secs   av.it.:   9.5
      thresh= 2.271E-06 alpha_mix =  0.700 |ddv_scf|^2 =  1.033E-11

      iter #   7 total cpu time :  1140.0 secs   av.it.:   9.9
      thresh= 3.215E-07 alpha_mix =  0.700 |ddv_scf|^2 =  1.602E-12

      iter #   8 total cpu time :  1157.1 secs   av.it.:   9.8
      thresh= 1.266E-07 alpha_mix =  0.700 |ddv_scf|^2 =  1.090E-13

      iter #   9 total cpu time :  1182.6 secs   av.it.:   9.5
      thresh= 3.301E-08 alpha_mix =  0.700 |ddv_scf|^2 =  1.035E-14

      iter #  10 total cpu time :  1202.8 secs   av.it.:   9.2
      thresh= 1.017E-08 alpha_mix =  0.700 |ddv_scf|^2 =  4.497E-16

      iter #  11 total cpu time :  1226.3 secs   av.it.:   9.7
      thresh= 2.121E-09 alpha_mix =  0.700 |ddv_scf|^2 =  1.004E-16

      iter #  12 total cpu time :  1259.3 secs   av.it.:   9.5
      thresh= 1.002E-09 alpha_mix =  0.700 |ddv_scf|^2 =  1.099E-17

     End of self-consistent calculation

     Convergence has been achieved 


     Representation #   7 mode #   7

     Self-consistent Calculation

      iter #   1 total cpu time :  1347.4 secs   av.it.:   4.0
      thresh= 1.000E-02 alpha_mix =  0.700 |ddv_scf|^2 =  4.953E-07

      iter #   2 total cpu time :  1368.8 secs   av.it.:   9.7
      thresh= 7.038E-05 alpha_mix =  0.700 |ddv_scf|^2 =  5.394E-07

      iter #   3 total cpu time :  1383.0 secs   av.it.:   8.9
      thresh= 7.344E-05 alpha_mix =  0.700 |ddv_scf|^2 =  7.774E-09

      iter #   4 total cpu time :  1404.6 secs   av.it.:   9.4
      thresh= 8.817E-06 alpha_mix =  0.700 |ddv_scf|^2 =  4.807E-10

      iter #   5 total cpu time :  1421.3 secs   av.it.:   9.4
      thresh= 2.192E-06 alpha_mix =  0.700 |ddv_scf|^2 =  3.653E-11

      iter #   6 total cpu time :  1444.3 secs   av.it.:   9.4
      thresh= 6.044E-07 alpha_mix =  0.700 |ddv_scf|^2 =  1.243E-12

      iter #   7 total cpu time :  1461.2 secs   av.it.:   9.6
      thresh= 1.115E-07 alpha_mix =  0.700 |ddv_scf|^2 =  2.458E-14

      iter #   8 total cpu time :  1481.8 secs   av.it.:   9.9
      thresh= 1.568E-08 alpha_mix =  0.700 |ddv_scf|^2 =  1.336E-15

      iter #   9 total cpu time :  1501.6 secs   av.it.:  10.0
      thresh= 3.656E-09 alpha_mix =  0.700 |ddv_scf|^2 =  5.135E-16

      iter #  10 total cpu time :  1524.1 secs   av.it.:   9.2
      thresh= 2.266E-09 alpha_mix =  0.700 |ddv_scf|^2 =  7.145E-17

     End of self-consistent calculation

     Convergence has been achieved 


     Representation #   8 mode #   8

     Self-consistent Calculation

      iter #   1 total cpu time :  1539.0 secs   av.it.:   4.2
      thresh= 1.000E-02 alpha_mix =  0.700 |ddv_scf|^2 =  1.589E-06

      iter #   2 total cpu time :  1556.1 secs   av.it.:   9.6
      thresh= 1.261E-04 alpha_mix =  0.700 |ddv_scf|^2 =  2.184E-06

      iter #   3 total cpu time :  1577.0 secs   av.it.:   8.8
      thresh= 1.478E-04 alpha_mix =  0.700 |ddv_scf|^2 =  9.181E-09

      iter #   4 total cpu time :  1593.5 secs   av.it.:   9.4
      thresh= 9.582E-06 alpha_mix =  0.700 |ddv_scf|^2 =  6.988E-10

      iter #   5 total cpu time :  1612.4 secs   av.it.:   9.4
      thresh= 2.643E-06 alpha_mix =  0.700 |ddv_scf|^2 =  1.477E-11

      iter #   6 total cpu time :  1628.0 secs   av.it.:   9.8
      thresh= 3.843E-07 alpha_mix =  0.700 |ddv_scf|^2 =  6.601E-13

      iter #   7 total cpu time :  1652.0 secs   av.it.:   9.7
      thresh= 8.125E-08 alpha_mix =  0.700 |ddv_scf|^2 =  2.730E-14

      iter #   8 total cpu time :  1669.1 secs   av.it.:   9.8
      thresh= 1.652E-08 alpha_mix =  0.700 |ddv_scf|^2 =  1.550E-15

      iter #   9 total cpu time :  1693.2 secs   av.it.:   9.9
      thresh= 3.937E-09 alpha_mix =  0.700 |ddv_scf|^2 =  2.099E-16

      iter #  10 total cpu time :  1713.4 secs   av.it.:   9.7
      thresh= 1.449E-09 alpha_mix =  0.700 |ddv_scf|^2 =  8.016E-17

     End of self-consistent calculation

     Convergence has been achieved 


     Representation #   9 mode #   9

     Self-consistent Calculation

      iter #   1 total cpu time :  1731.2 secs   av.it.:   6.5
      thresh= 1.000E-02 alpha_mix =  0.700 |ddv_scf|^2 =  1.408E-05

      iter #   2 total cpu time :  1745.3 secs   av.it.:   9.8
      thresh= 3.752E-04 alpha_mix =  0.700 |ddv_scf|^2 =  5.141E-06

      iter #   3 total cpu time :  1768.1 secs   av.it.:   9.4
      thresh= 2.267E-04 alpha_mix =  0.700 |ddv_scf|^2 =  4.577E-07

      iter #   4 total cpu time :  1796.1 secs   av.it.:   9.0
      thresh= 6.765E-05 alpha_mix =  0.700 |ddv_scf|^2 =  9.807E-09

      iter #   5 total cpu time :  1819.6 secs   av.it.:   9.3
      thresh= 9.903E-06 alpha_mix =  0.700 |ddv_scf|^2 =  7.492E-10

      iter #   6 total cpu time :  1837.1 secs   av.it.:   9.6
      thresh= 2.737E-06 alpha_mix =  0.700 |ddv_scf|^2 =  4.300E-11

      iter #   7 total cpu time :  1855.1 secs   av.it.:   9.7
      thresh= 6.557E-07 alpha_mix =  0.700 |ddv_scf|^2 =  3.171E-12

      iter #   8 total cpu time :  1880.0 secs   av.it.:   9.8
      thresh= 1.781E-07 alpha_mix =  0.700 |ddv_scf|^2 =  5.946E-14

      iter #   9 total cpu time :  1900.6 secs   av.it.:   9.6
      thresh= 2.438E-08 alpha_mix =  0.700 |ddv_scf|^2 =  3.801E-15

      iter #  10 total cpu time :  1917.8 secs   av.it.:   9.5
      thresh= 6.165E-09 alpha_mix =  0.700 |ddv_scf|^2 =  5.443E-16

      iter #  11 total cpu time :  1939.6 secs   av.it.:   9.5
      thresh= 2.333E-09 alpha_mix =  0.700 |ddv_scf|^2 =  1.169E-16

      iter #  12 total cpu time :  1961.6 secs   av.it.:   9.4
      thresh= 1.081E-09 alpha_mix =  0.700 |ddv_scf|^2 =  5.292E-18

     End of self-consistent calculation

     Convergence has been achieved 


     Representation #  10 mode #  10

     Self-consistent Calculation

      iter #   1 total cpu time :  1980.3 secs   av.it.:   4.1
      thresh= 1.000E-02 alpha_mix =  0.700 |ddv_scf|^2 =  6.938E-07

      iter #   2 total cpu time :  1997.3 secs   av.it.:   9.7
      thresh= 8.330E-05 alpha_mix =  0.700 |ddv_scf|^2 =  7.702E-07

      iter #   3 total cpu time :  2016.2 secs   av.it.:   8.8
      thresh= 8.776E-05 alpha_mix =  0.700 |ddv_scf|^2 =  9.685E-09

      iter #   4 total cpu time :  2031.8 secs   av.it.:   9.4
      thresh= 9.841E-06 alpha_mix =  0.700 |ddv_scf|^2 =  7.045E-10

      iter #   5 total cpu time :  2054.0 secs   av.it.:   9.3
      thresh= 2.654E-06 alpha_mix =  0.700 |ddv_scf|^2 =  3.903E-11

      iter #   6 total cpu time :  2068.7 secs   av.it.:   9.7
      thresh= 6.247E-07 alpha_mix =  0.700 |ddv_scf|^2 =  1.070E-12

      iter #   7 total cpu time :  2092.1 secs   av.it.:   9.7
      thresh= 1.034E-07 alpha_mix =  0.700 |ddv_scf|^2 =  3.925E-14

      iter #   8 total cpu time :  2107.0 secs   av.it.:   9.9
      thresh= 1.981E-08 alpha_mix =  0.700 |ddv_scf|^2 =  2.905E-15

      iter #   9 total cpu time :  2127.9 secs   av.it.:   9.8
      thresh= 5.390E-09 alpha_mix =  0.700 |ddv_scf|^2 =  1.139E-15

      iter #  10 total cpu time :  2146.5 secs   av.it.:   9.0
      thresh= 3.375E-09 alpha_mix =  0.700 |ddv_scf|^2 =  1.310E-16

      iter #  11 total cpu time :  2174.0 secs   av.it.:   9.4
      thresh= 1.145E-09 alpha_mix =  0.700 |ddv_scf|^2 =  1.112E-17

     End of self-consistent calculation

     Convergence has been achieved 


     Representation #  11 mode #  11

     Self-consistent Calculation

      iter #   1 total cpu time :  2185.8 secs   av.it.:   4.1
      thresh= 1.000E-02 alpha_mix =  0.700 |ddv_scf|^2 =  1.342E-06

      iter #   2 total cpu time :  2201.7 secs   av.it.:   9.6
      thresh= 1.159E-04 alpha_mix =  0.700 |ddv_scf|^2 =  1.751E-06

      iter #   3 total cpu time :  2218.5 secs   av.it.:   8.8
      thresh= 1.323E-04 alpha_mix =  0.700 |ddv_scf|^2 =  1.078E-08

      iter #   4 total cpu time :  2234.2 secs   av.it.:   9.2
      thresh= 1.038E-05 alpha_mix =  0.700 |ddv_scf|^2 =  5.389E-10

      iter #   5 total cpu time :  2254.7 secs   av.it.:   9.4
      thresh= 2.321E-06 alpha_mix =  0.700 |ddv_scf|^2 =  3.429E-11

      iter #   6 total cpu time :  2269.8 secs   av.it.:   9.5
      thresh= 5.856E-07 alpha_mix =  0.700 |ddv_scf|^2 =  1.210E-12

      iter #   7 total cpu time :  2295.4 secs   av.it.:   9.5
      thresh= 1.100E-07 alpha_mix =  0.700 |ddv_scf|^2 =  2.398E-14

      iter #   8 total cpu time :  2319.3 secs   av.it.:   9.9
      thresh= 1.549E-08 alpha_mix =  0.700 |ddv_scf|^2 =  1.555E-15

      iter #   9 total cpu time :  2342.5 secs   av.it.:   9.9
      thresh= 3.944E-09 alpha_mix =  0.700 |ddv_scf|^2 =  9.495E-16

      iter #  10 total cpu time :  2360.2 secs   av.it.:   8.9
      thresh= 3.081E-09 alpha_mix =  0.700 |ddv_scf|^2 =  4.944E-17

     End of self-consistent calculation

     Convergence has been achieved 


     Representation #  12 mode #  12

     Self-consistent Calculation

      iter #   1 total cpu time :  2382.1 secs   av.it.:   3.7
      thresh= 1.000E-02 alpha_mix =  0.700 |ddv_scf|^2 =  1.809E-07

      iter #   2 total cpu time :  2396.2 secs   av.it.:   9.4
      thresh= 4.253E-05 alpha_mix =  0.700 |ddv_scf|^2 =  3.063E-07

      iter #   3 total cpu time :  2414.0 secs   av.it.:   8.4
      thresh= 5.534E-05 alpha_mix =  0.700 |ddv_scf|^2 =  7.105E-10

      iter #   4 total cpu time :  2427.9 secs   av.it.:   9.3
      thresh= 2.665E-06 alpha_mix =  0.700 |ddv_scf|^2 =  1.903E-11

      iter #   5 total cpu time :  2450.9 secs   av.it.:   9.6
      thresh= 4.362E-07 alpha_mix =  0.700 |ddv_scf|^2 =  5.629E-13

      iter #   6 total cpu time :  2470.8 secs   av.it.:   9.5
      thresh= 7.503E-08 alpha_mix =  0.700 |ddv_scf|^2 =  8.282E-15

      iter #   7 total cpu time :  2492.6 secs   av.it.:   9.7
      thresh= 9.101E-09 alpha_mix =  0.700 |ddv_scf|^2 =  2.709E-16

      iter #   8 total cpu time :  2515.8 secs   av.it.:   9.7
      thresh= 1.646E-09 alpha_mix =  0.700 |ddv_scf|^2 =  2.167E-16

      iter #   9 total cpu time :  2546.2 secs   av.it.:   8.6
      thresh= 1.472E-09 alpha_mix =  0.700 |ddv_scf|^2 =  9.347E-18

     End of self-consistent calculation

     Convergence has been achieved 


     Representation #  13 mode #  13

     Self-consistent Calculation

      iter #   1 total cpu time :  2562.0 secs   av.it.:   3.9
      thresh= 1.000E-02 alpha_mix =  0.700 |ddv_scf|^2 =  1.256E-06

      iter #   2 total cpu time :  2577.8 secs   av.it.:   9.3
      thresh= 1.121E-04 alpha_mix =  0.700 |ddv_scf|^2 =  2.390E-06

      iter #   3 total cpu time :  2588.2 secs   av.it.:   8.3
      thresh= 1.546E-04 alpha_mix =  0.700 |ddv_scf|^2 =  4.897E-10

      iter #   4 total cpu time :  2603.4 secs   av.it.:   9.4
      thresh= 2.213E-06 alpha_mix =  0.700 |ddv_scf|^2 =  1.032E-11

      iter #   5 total cpu time :  2619.2 secs   av.it.:   9.5
      thresh= 3.212E-07 alpha_mix =  0.700 |ddv_scf|^2 =  2.307E-13

      iter #   6 total cpu time :  2634.3 secs   av.it.:   9.7
      thresh= 4.803E-08 alpha_mix =  0.700 |ddv_scf|^2 =  8.211E-15

      iter #   7 total cpu time :  2658.0 secs   av.it.:   9.6
      thresh= 9.061E-09 alpha_mix =  0.700 |ddv_scf|^2 =  1.560E-16

      iter #   8 total cpu time :  2680.0 secs   av.it.:   9.6
      thresh= 1.249E-09 alpha_mix =  0.700 |ddv_scf|^2 =  1.300E-16

      iter #   9 total cpu time :  2698.8 secs   av.it.:   8.7
      thresh= 1.140E-09 alpha_mix =  0.700 |ddv_scf|^2 =  1.488E-17

     End of self-consistent calculation

     Convergence has been achieved 


     Representation #  14 mode #  14

     Self-consistent Calculation

      iter #   1 total cpu time :  2716.0 secs   av.it.:   6.8
      thresh= 1.000E-02 alpha_mix =  0.700 |ddv_scf|^2 =  1.488E-04

      iter #   2 total cpu time :  2737.9 secs   av.it.:   9.4
      thresh= 1.220E-03 alpha_mix =  0.700 |ddv_scf|^2 =  2.905E-04

      iter #   3 total cpu time :  2757.6 secs   av.it.:   8.3
      thresh= 1.704E-03 alpha_mix =  0.700 |ddv_scf|^2 =  2.259E-08

      iter #   4 total cpu time :  2779.4 secs   av.it.:   9.9
      thresh= 1.503E-05 alpha_mix =  0.700 |ddv_scf|^2 =  2.656E-09

      iter #   5 total cpu time :  2801.5 secs   av.it.:   8.8
      thresh= 5.154E-06 alpha_mix =  0.700 |ddv_scf|^2 =  8.185E-12

      iter #   6 total cpu time :  2827.5 secs   av.it.:   9.4
      thresh= 2.861E-07 alpha_mix =  0.700 |ddv_scf|^2 =  4.833E-13

      iter #   7 total cpu time :  2855.1 secs   av.it.:   8.9
      thresh= 6.952E-08 alpha_mix =  0.700 |ddv_scf|^2 =  1.762E-15

      iter #   8 total cpu time :  2873.2 secs   av.it.:   9.3
      thresh= 4.197E-09 alpha_mix =  0.700 |ddv_scf|^2 =  6.903E-17

     End of self-consistent calculation

     Convergence has been achieved 


     Representation #  15 mode #  15

     Self-consistent Calculation

      iter #   1 total cpu time :  2895.4 secs   av.it.:   3.9
      thresh= 1.000E-02 alpha_mix =  0.700 |ddv_scf|^2 =  1.097E-06

      iter #   2 total cpu time :  2909.0 secs   av.it.:   9.3
      thresh= 1.048E-04 alpha_mix =  0.700 |ddv_scf|^2 =  2.076E-06

      iter #   3 total cpu time :  2924.6 secs   av.it.:   8.3
      thresh= 1.441E-04 alpha_mix =  0.700 |ddv_scf|^2 =  5.635E-10

      iter #   4 total cpu time :  2942.8 secs   av.it.:   9.3
      thresh= 2.374E-06 alpha_mix =  0.700 |ddv_scf|^2 =  6.308E-12

      iter #   5 total cpu time :  2957.6 secs   av.it.:   9.4
      thresh= 2.512E-07 alpha_mix =  0.700 |ddv_scf|^2 =  2.470E-13

      iter #   6 total cpu time :  2981.0 secs   av.it.:   9.6
      thresh= 4.970E-08 alpha_mix =  0.700 |ddv_scf|^2 =  3.460E-15

      iter #   7 total cpu time :  3001.7 secs   av.it.:   9.8
      thresh= 5.882E-09 alpha_mix =  0.700 |ddv_scf|^2 =  1.300E-16

      iter #   8 total cpu time :  3023.0 secs   av.it.:   9.6
      thresh= 1.140E-09 alpha_mix =  0.700 |ddv_scf|^2 =  9.656E-17

     End of self-consistent calculation

     Convergence has been achieved 


     Representation #  16 mode #  16

     Self-consistent Calculation

      iter #   1 total cpu time :  3037.0 secs   av.it.:   3.7
      thresh= 1.000E-02 alpha_mix =  0.700 |ddv_scf|^2 =  8.256E-08

      iter #   2 total cpu time :  3052.0 secs   av.it.:   9.6
      thresh= 2.873E-05 alpha_mix =  0.700 |ddv_scf|^2 =  9.997E-08

      iter #   3 total cpu time :  3065.1 secs   av.it.:   8.5
      thresh= 3.162E-05 alpha_mix =  0.700 |ddv_scf|^2 =  2.174E-09

      iter #   4 total cpu time :  3086.1 secs   av.it.:   8.9
      thresh= 4.663E-06 alpha_mix =  0.700 |ddv_scf|^2 =  2.141E-11

      iter #   5 total cpu time :  3097.7 secs   av.it.:   9.5
      thresh= 4.627E-07 alpha_mix =  0.700 |ddv_scf|^2 =  4.074E-13

      iter #   6 total cpu time :  3116.8 secs   av.it.:   9.6
      thresh= 6.383E-08 alpha_mix =  0.700 |ddv_scf|^2 =  8.544E-15

      iter #   7 total cpu time :  3133.0 secs   av.it.:   9.7
      thresh= 9.244E-09 alpha_mix =  0.700 |ddv_scf|^2 =  4.481E-16

      iter #   8 total cpu time :  3153.1 secs   av.it.:   9.6
      thresh= 2.117E-09 alpha_mix =  0.700 |ddv_scf|^2 =  3.983E-16

      iter #   9 total cpu time :  3167.8 secs   av.it.:   8.5
      thresh= 1.996E-09 alpha_mix =  0.700 |ddv_scf|^2 =  1.480E-17

     End of self-consistent calculation

     Convergence has been achieved 


     Representation #  17 mode #  17

     Self-consistent Calculation

      iter #   1 total cpu time :  3183.9 secs   av.it.:   3.6
      thresh= 1.000E-02 alpha_mix =  0.700 |ddv_scf|^2 =  2.181E-07

      iter #   2 total cpu time :  3199.3 secs   av.it.:   9.4
      thresh= 4.670E-05 alpha_mix =  0.700 |ddv_scf|^2 =  3.724E-07

      iter #   3 total cpu time :  3211.7 secs   av.it.:   8.4
      thresh= 6.103E-05 alpha_mix =  0.700 |ddv_scf|^2 =  7.087E-10

      iter #   4 total cpu time :  3228.8 secs   av.it.:   9.3
      thresh= 2.662E-06 alpha_mix =  0.700 |ddv_scf|^2 =  2.508E-11

      iter #   5 total cpu time :  3247.9 secs   av.it.:   9.5
      thresh= 5.008E-07 alpha_mix =  0.700 |ddv_scf|^2 =  9.745E-13

      iter #   6 total cpu time :  3266.4 secs   av.it.:   9.2
      thresh= 9.872E-08 alpha_mix =  0.700 |ddv_scf|^2 =  8.750E-15

      iter #   7 total cpu time :  3281.0 secs   av.it.:   9.6
      thresh= 9.354E-09 alpha_mix =  0.700 |ddv_scf|^2 =  3.171E-16

      iter #   8 total cpu time :  3306.9 secs   av.it.:   9.6
      thresh= 1.781E-09 alpha_mix =  0.700 |ddv_scf|^2 =  1.079E-16

      iter #   9 total cpu time :  3338.5 secs   av.it.:   8.7
      thresh= 1.039E-09 alpha_mix =  0.700 |ddv_scf|^2 =  1.180E-17

     End of self-consistent calculation

     Convergence has been achieved 


     Representation #  18 mode #  18

     Self-consistent Calculation

      iter #   1 total cpu time :  3355.9 secs   av.it.:   3.9
      thresh= 1.000E-02 alpha_mix =  0.700 |ddv_scf|^2 =  3.021E-07

      iter #   2 total cpu time :  3368.9 secs   av.it.:   9.4
      thresh= 5.496E-05 alpha_mix =  0.700 |ddv_scf|^2 =  5.308E-07

      iter #   3 total cpu time :  3387.1 secs   av.it.:   8.4
      thresh= 7.285E-05 alpha_mix =  0.700 |ddv_scf|^2 =  8.157E-10

      iter #   4 total cpu time :  3399.9 secs   av.it.:   9.1
      thresh= 2.856E-06 alpha_mix =  0.700 |ddv_scf|^2 =  1.455E-11

      iter #   5 total cpu time :  3421.7 secs   av.it.:   9.5
      thresh= 3.814E-07 alpha_mix =  0.700 |ddv_scf|^2 =  4.997E-13

      iter #   6 total cpu time :  3443.5 secs   av.it.:   9.4
      thresh= 7.069E-08 alpha_mix =  0.700 |ddv_scf|^2 =  1.206E-14

      iter #   7 total cpu time :  3469.1 secs   av.it.:   9.6
      thresh= 1.098E-08 alpha_mix =  0.700 |ddv_scf|^2 =  2.306E-16

      iter #   8 total cpu time :  3490.6 secs   av.it.:   9.7
      thresh= 1.518E-09 alpha_mix =  0.700 |ddv_scf|^2 =  6.633E-17

     End of self-consistent calculation

     Convergence has been achieved 


     Representation #  19 mode #  19

     Self-consistent Calculation

      iter #   1 total cpu time :  3508.7 secs   av.it.:   3.8
      thresh= 1.000E-02 alpha_mix =  0.700 |ddv_scf|^2 =  3.515E-07

      iter #   2 total cpu time :  3520.9 secs   av.it.:   9.3
      thresh= 5.929E-05 alpha_mix =  0.700 |ddv_scf|^2 =  6.522E-07

      iter #   3 total cpu time :  3549.1 secs   av.it.:   8.3
      thresh= 8.076E-05 alpha_mix =  0.700 |ddv_scf|^2 =  4.397E-10

      iter #   4 total cpu time :  3572.3 secs   av.it.:   9.4
      thresh= 2.097E-06 alpha_mix =  0.700 |ddv_scf|^2 =  7.363E-12

      iter #   5 total cpu time :  3593.0 secs   av.it.:   9.6
      thresh= 2.713E-07 alpha_mix =  0.700 |ddv_scf|^2 =  2.397E-13

      iter #   6 total cpu time :  3608.5 secs   av.it.:   9.6
      thresh= 4.896E-08 alpha_mix =  0.700 |ddv_scf|^2 =  3.467E-15

      iter #   7 total cpu time :  3629.3 secs   av.it.:   9.6
      thresh= 5.889E-09 alpha_mix =  0.700 |ddv_scf|^2 =  1.315E-16

      iter #   8 total cpu time :  3645.7 secs   av.it.:   9.6
      thresh= 1.147E-09 alpha_mix =  0.700 |ddv_scf|^2 =  1.769E-16

      iter #   9 total cpu time :  3667.7 secs   av.it.:   8.5
      thresh= 1.330E-09 alpha_mix =  0.700 |ddv_scf|^2 =  1.355E-18

     End of self-consistent calculation

     Convergence has been achieved 


     Representation #  20 mode #  20

     Self-consistent Calculation

      iter #   1 total cpu time :  3688.0 secs   av.it.:   3.8
      thresh= 1.000E-02 alpha_mix =  0.700 |ddv_scf|^2 =  1.354E-07

      iter #   2 total cpu time :  3706.9 secs   av.it.:   9.5
      thresh= 3.680E-05 alpha_mix =  0.700 |ddv_scf|^2 =  2.051E-07

      iter #   3 total cpu time :  3724.5 secs   av.it.:   8.4
      thresh= 4.529E-05 alpha_mix =  0.700 |ddv_scf|^2 =  1.307E-09

      iter #   4 total cpu time :  3741.0 secs   av.it.:   9.1
      thresh= 3.616E-06 alpha_mix =  0.700 |ddv_scf|^2 =  1.758E-11

      iter #   5 total cpu time :  3758.5 secs   av.it.:   9.6
      thresh= 4.192E-07 alpha_mix =  0.700 |ddv_scf|^2 =  3.425E-13

      iter #   6 total cpu time :  3780.5 secs   av.it.:   9.6
      thresh= 5.853E-08 alpha_mix =  0.700 |ddv_scf|^2 =  1.041E-14

      iter #   7 total cpu time :  3798.3 secs   av.it.:   9.8
      thresh= 1.020E-08 alpha_mix =  0.700 |ddv_scf|^2 =  3.813E-16

      iter #   8 total cpu time :  3813.5 secs   av.it.:   9.7
      thresh= 1.953E-09 alpha_mix =  0.700 |ddv_scf|^2 =  2.230E-16

      iter #   9 total cpu time :  3834.6 secs   av.it.:   8.7
      thresh= 1.493E-09 alpha_mix =  0.700 |ddv_scf|^2 =  5.148E-17

     End of self-consistent calculation

     Convergence has been achieved 


     Representation #  21 mode #  21

     Self-consistent Calculation

      iter #   1 total cpu time :  3850.5 secs   av.it.:   3.8
      thresh= 1.000E-02 alpha_mix =  0.700 |ddv_scf|^2 =  3.735E-07

      iter #   2 total cpu time :  3868.2 secs   av.it.:   9.3
      thresh= 6.112E-05 alpha_mix =  0.700 |ddv_scf|^2 =  6.900E-07

      iter #   3 total cpu time :  3880.9 secs   av.it.:   8.3
      thresh= 8.307E-05 alpha_mix =  0.700 |ddv_scf|^2 =  4.753E-10

      iter #   4 total cpu time :  3902.5 secs   av.it.:   9.1
      thresh= 2.180E-06 alpha_mix =  0.700 |ddv_scf|^2 =  6.502E-12

      iter #   5 total cpu time :  3924.5 secs   av.it.:   9.0
      thresh= 2.550E-07 alpha_mix =  0.700 |ddv_scf|^2 =  7.269E-14

      iter #   6 total cpu time :  3946.1 secs   av.it.:   9.5
      thresh= 2.696E-08 alpha_mix =  0.700 |ddv_scf|^2 =  1.725E-15

      iter #   7 total cpu time :  3959.2 secs   av.it.:   9.7
      thresh= 4.154E-09 alpha_mix =  0.700 |ddv_scf|^2 =  1.503E-16

      iter #   8 total cpu time :  3981.0 secs   av.it.:   9.4
      thresh= 1.226E-09 alpha_mix =  0.700 |ddv_scf|^2 =  8.429E-17

     End of self-consistent calculation

     Convergence has been achieved 
 
     Number of q in the star =   24
     List of q in the star:
          1   0.541265877   0.324759526   0.216506351
          2  -0.541265877   0.216506351   0.324759526
          3   0.541265877   0.216506351   0.324759526
          4   0.324759526  -0.541265877   0.216506351
          5  -0.541265877  -0.324759526   0.216506351
          6   0.324759526  -0.216506351  -0.541265877
          7  -0.324759526  -0.216506351   0.541265877
          8   0.324759526   0.216506351   0.541265877
          9   0.216506351  -0.541265877  -0.324759526
         10  -0.216506351   0.541265877  -0.324759526
         11   0.216506351   0.541265877   0.324759526
         12  -0.541265877   0.324759526  -0.216506351
         13   0.541265877  -0.324759526  -0.216506351
         14  -0.541265877  -0.216506351  -0.324759526
         15   0.541265877   0.216506351  -0.324759526
         16   0.541265877  -0.216506351   0.324759526
         17  -0.541265877  -0.324759526  -0.216506351
         18   0.541265877   0.324759526  -0.216506351
         19  -0.216506351  -0.541265877   0.324759526
         20  -0.324759526   0.541265877   0.216506351
         21   0.216506351  -0.324759526   0.541265877
         22  -0.216506351  -0.324759526  -0.541265877
         23   0.216506351   0.324759526  -0.541265877
         24  -0.216506351   0.324759526   0.541265877

     Diagonalizing the dynamical matrix

     q = (    0.541265877   0.324759526   0.216506351 ) 

 **************************************************************************
     freq (    1) =       9.991843 [THz] =     333.292018 [cm-1]
     freq (    2) =      10.233133 [THz] =     341.340585 [cm-1]
     freq (    3) =      11.870505 [THz] =     395.957438 [cm-1]
     freq (    4) =      30.353018 [THz] =    1012.467686 [cm-1]
     freq (    5) =      30.751288 [THz] =    1025.752557 [cm-1]
     freq (    6) =      31.464807 [THz] =    1049.552982 [cm-1]
     freq (    7) =      35.516806 [THz] =    1184.713134 [cm-1]
     freq (    8) =      35.536921 [THz] =    1185.384077 [cm-1]
     freq (    9) =      37.318242 [THz] =    1244.802559 [cm-1]
     freq (   10) =      39.724164 [THz] =    1325.055491 [cm-1]
     freq (   11) =      40.495201 [THz] =    1350.774498 [cm-1]
     freq (   12) =      40.912955 [THz] =    1364.709285 [cm-1]
     freq (   13) =      42.977354 [THz] =    1433.570229 [cm-1]
     freq (   14) =      43.676236 [THz] =    1456.882398 [cm-1]
     freq (   15) =      45.424601 [THz] =    1515.201582 [cm-1]
     freq (   16) =      45.872277 [THz] =    1530.134457 [cm-1]
     freq (   17) =      46.442641 [THz] =    1549.159746 [cm-1]
     freq (   18) =      47.542427 [THz] =    1585.844678 [cm-1]
     freq (   19) =      51.064348 [THz] =    1703.323319 [cm-1]
     freq (   20) =      52.443571 [THz] =    1749.329225 [cm-1]
     freq (   21) =      55.184560 [THz] =    1840.758784 [cm-1]
 **************************************************************************

     Mode symmetry, C_s (m)     point group:

     freq (   1-   1) =        333.3  [cm-1]   --> A'                 
     freq (   2-   2) =        341.3  [cm-1]   --> A'                 
     freq (   3-   3) =        396.0  [cm-1]   --> A''                
     freq (   4-   4) =       1012.5  [cm-1]   --> A''                
     freq (   5-   5) =       1025.8  [cm-1]   --> A'                 
     freq (   6-   6) =       1049.6  [cm-1]   --> A''                
     freq (   7-   7) =       1184.7  [cm-1]   --> A''                
     freq (   8-   8) =       1185.4  [cm-1]   --> A'                 
     freq (   9-   9) =       1244.8  [cm-1]   --> A'                 
     freq (  10-  10) =       1325.1  [cm-1]   --> A''                
     freq (  11-  11) =       1350.8  [cm-1]   --> A''                
     freq (  12-  12) =       1364.7  [cm-1]   --> A'                 
     freq (  13-  13) =       1433.6  [cm-1]   --> A'                 
     freq (  14-  14) =       1456.9  [cm-1]   --> A''                
     freq (  15-  15) =       1515.2  [cm-1]   --> A'                 
     freq (  16-  16) =       1530.1  [cm-1]   --> A''                
     freq (  17-  17) =       1549.2  [cm-1]   --> A''                
     freq (  18-  18) =       1585.8  [cm-1]   --> A'                 
     freq (  19-  19) =       1703.3  [cm-1]   --> A'                 
     freq (  20-  20) =       1749.3  [cm-1]   --> A''                
     freq (  21-  21) =       1840.8  [cm-1]   --> A'                 
     electron-phonon interaction  ...

     Gaussian Broadening:   0.005 Ry, ngauss=   0
     DOS =  1.900675 states/spin/Ry/Unit Cell at Ef= 17.155196 eV
     lambda(    1)=  0.1786   gamma=   32.37 GHz
     lambda(    2)=  0.1850   gamma=   35.17 GHz
     lambda(    3)=  0.0713   gamma=   18.23 GHz
     lambda(    4)=  0.9542   gamma= 1595.64 GHz
     lambda(    5)=  0.8526   gamma= 1463.38 GHz
     lambda(    6)=  0.3822   gamma=  686.78 GHz
     lambda(    7)=  0.2651   gamma=  606.98 GHz
     lambda(    8)=  0.2885   gamma=  661.24 GHz
     lambda(    9)=  0.1002   gamma=  253.20 GHz
     lambda(   10)=  0.0050   gamma=   14.38 GHz
     lambda(   11)=  0.0121   gamma=   35.94 GHz
     lambda(   12)=  0.0255   gamma=   77.55 GHz
     lambda(   13)=  0.0051   gamma=   17.09 GHz
     lambda(   14)=  0.0075   gamma=   26.12 GHz
     lambda(   15)=  0.0107   gamma=   39.99 GHz
     lambda(   16)=  0.0395   gamma=  151.01 GHz
     lambda(   17)=  0.0167   gamma=   65.33 GHz
     lambda(   18)=  0.0327   gamma=  134.12 GHz
     lambda(   19)=  0.0616   gamma=  291.69 GHz
     lambda(   20)=  0.0144   gamma=   72.04 GHz
     lambda(   21)=  0.0286   gamma=  157.93 GHz
     Gaussian Broadening:   0.010 Ry, ngauss=   0
     DOS =  2.130656 states/spin/Ry/Unit Cell at Ef= 17.149400 eV
     lambda(    1)=  0.1204   gamma=   24.45 GHz
     lambda(    2)=  0.1242   gamma=   26.45 GHz
     lambda(    3)=  0.0534   gamma=   15.30 GHz
     lambda(    4)=  0.5068   gamma=  950.09 GHz
     lambda(    5)=  0.4519   gamma=  869.53 GHz
     lambda(    6)=  0.3274   gamma=  659.57 GHz
     lambda(    7)=  0.1860   gamma=  477.48 GHz
     lambda(    8)=  0.1953   gamma=  501.91 GHz
     lambda(    9)=  0.1232   gamma=  348.97 GHz
     lambda(   10)=  0.0125   gamma=   40.16 GHz
     lambda(   11)=  0.0152   gamma=   50.81 GHz
     lambda(   12)=  0.0167   gamma=   56.89 GHz
     lambda(   13)=  0.0065   gamma=   24.40 GHz
     lambda(   14)=  0.0045   gamma=   17.56 GHz
     lambda(   15)=  0.0172   gamma=   72.21 GHz
     lambda(   16)=  0.0248   gamma=  106.30 GHz
     lambda(   17)=  0.0096   gamma=   42.19 GHz
     lambda(   18)=  0.0218   gamma=  100.17 GHz
     lambda(   19)=  0.0451   gamma=  239.21 GHz
     lambda(   20)=  0.0138   gamma=   77.38 GHz
     lambda(   21)=  0.0197   gamma=  122.11 GHz
     Gaussian Broadening:   0.015 Ry, ngauss=   0
     DOS =  2.235086 states/spin/Ry/Unit Cell at Ef= 17.146382 eV
     lambda(    1)=  0.1082   gamma=   23.06 GHz
     lambda(    2)=  0.1105   gamma=   24.69 GHz
     lambda(    3)=  0.0503   gamma=   15.13 GHz
     lambda(    4)=  0.4146   gamma=  815.28 GHz
     lambda(    5)=  0.3582   gamma=  722.92 GHz
     lambda(    6)=  0.2804   gamma=  592.42 GHz
     lambda(    7)=  0.1653   gamma=  445.13 GHz
     lambda(    8)=  0.1675   gamma=  451.55 GHz
     lambda(    9)=  0.1321   gamma=  392.70 GHz
     lambda(   10)=  0.0131   gamma=   44.23 GHz
     lambda(   11)=  0.0155   gamma=   54.38 GHz
     lambda(   12)=  0.0150   gamma=   53.55 GHz
     lambda(   13)=  0.0061   gamma=   23.98 GHz
     lambda(   14)=  0.0040   gamma=   16.43 GHz
     lambda(   15)=  0.0235   gamma=  103.66 GHz
     lambda(   16)=  0.0212   gamma=   95.31 GHz
     lambda(   17)=  0.0081   gamma=   37.25 GHz
     lambda(   18)=  0.0182   gamma=   87.62 GHz
     lambda(   19)=  0.0402   gamma=  223.54 GHz
     lambda(   20)=  0.0130   gamma=   76.35 GHz
     lambda(   21)=  0.0160   gamma=  103.91 GHz
     Gaussian Broadening:   0.020 Ry, ngauss=   0
     DOS =  2.290454 states/spin/Ry/Unit Cell at Ef= 17.145317 eV
     lambda(    1)=  0.1033   gamma=   22.56 GHz
     lambda(    2)=  0.1050   gamma=   24.05 GHz
     lambda(    3)=  0.0498   gamma=   15.36 GHz
     lambda(    4)=  0.3805   gamma=  766.77 GHz
     lambda(    5)=  0.3299   gamma=  682.29 GHz
     lambda(    6)=  0.2537   gamma=  549.43 GHz
     lambda(    7)=  0.1559   gamma=  430.25 GHz
     lambda(    8)=  0.1542   gamma=  425.99 GHz
     lambda(    9)=  0.1279   gamma=  389.52 GHz
     lambda(   10)=  0.0131   gamma=   45.28 GHz
     lambda(   11)=  0.0154   gamma=   55.29 GHz
     lambda(   12)=  0.0143   gamma=   52.35 GHz
     lambda(   13)=  0.0060   gamma=   24.39 GHz
     lambda(   14)=  0.0042   gamma=   17.54 GHz
     lambda(   15)=  0.0324   gamma=  146.03 GHz
     lambda(   16)=  0.0195   gamma=   89.66 GHz
     lambda(   17)=  0.0076   gamma=   35.63 GHz
     lambda(   18)=  0.0163   gamma=   80.78 GHz
     lambda(   19)=  0.0398   gamma=  227.13 GHz
     lambda(   20)=  0.0123   gamma=   73.84 GHz
     lambda(   21)=  0.0145   gamma=   96.53 GHz
     Gaussian Broadening:   0.025 Ry, ngauss=   0
     DOS =  2.332190 states/spin/Ry/Unit Cell at Ef= 17.144758 eV
     lambda(    1)=  0.1039   gamma=   23.11 GHz
     lambda(    2)=  0.1035   gamma=   24.14 GHz
     lambda(    3)=  0.0505   gamma=   15.86 GHz
     lambda(    4)=  0.3702   gamma=  759.59 GHz
     lambda(    5)=  0.3303   gamma=  695.72 GHz
     lambda(    6)=  0.2430   gamma=  535.71 GHz
     lambda(    7)=  0.1533   gamma=  430.55 GHz
     lambda(    8)=  0.1501   gamma=  422.29 GHz
     lambda(    9)=  0.1237   gamma=  383.73 GHz
     lambda(   10)=  0.0134   gamma=   46.94 GHz
     lambda(   11)=  0.0154   gamma=   56.27 GHz
     lambda(   12)=  0.0142   gamma=   53.04 GHz
     lambda(   13)=  0.0062   gamma=   25.48 GHz
     lambda(   14)=  0.0045   gamma=   18.98 GHz
     lambda(   15)=  0.0385   gamma=  176.71 GHz
     lambda(   16)=  0.0188   gamma=   88.00 GHz
     lambda(   17)=  0.0075   gamma=   36.18 GHz
     lambda(   18)=  0.0158   gamma=   79.52 GHz
     lambda(   19)=  0.0406   gamma=  235.78 GHz
     lambda(   20)=  0.0120   gamma=   73.29 GHz
     lambda(   21)=  0.0140   gamma=   94.77 GHz
     Gaussian Broadening:   0.030 Ry, ngauss=   0
     DOS =  2.360595 states/spin/Ry/Unit Cell at Ef= 17.144134 eV
     lambda(    1)=  0.1066   gamma=   24.00 GHz
     lambda(    2)=  0.1033   gamma=   24.39 GHz
     lambda(    3)=  0.0513   gamma=   16.31 GHz
     lambda(    4)=  0.3673   gamma=  762.82 GHz
     lambda(    5)=  0.3387   gamma=  721.98 GHz
     lambda(    6)=  0.2393   gamma=  534.08 GHz
     lambda(    7)=  0.1538   gamma=  437.38 GHz
     lambda(    8)=  0.1501   gamma=  427.17 GHz
     lambda(    9)=  0.1219   gamma=  382.73 GHz
     lambda(   10)=  0.0138   gamma=   48.95 GHz
     lambda(   11)=  0.0156   gamma=   57.50 GHz
     lambda(   12)=  0.0144   gamma=   54.32 GHz
     lambda(   13)=  0.0063   gamma=   26.43 GHz
     lambda(   14)=  0.0047   gamma=   20.24 GHz
     lambda(   15)=  0.0415   gamma=  193.19 GHz
     lambda(   16)=  0.0187   gamma=   88.81 GHz
     lambda(   17)=  0.0077   gamma=   37.61 GHz
     lambda(   18)=  0.0158   gamma=   80.55 GHz
     lambda(   19)=  0.0412   gamma=  242.03 GHz
     lambda(   20)=  0.0119   gamma=   73.77 GHz
     lambda(   21)=  0.0138   gamma=   94.56 GHz
     Gaussian Broadening:   0.035 Ry, ngauss=   0
     DOS =  2.381114 states/spin/Ry/Unit Cell at Ef= 17.143351 eV
     lambda(    1)=  0.1095   gamma=   24.87 GHz
     lambda(    2)=  0.1033   gamma=   24.59 GHz
     lambda(    3)=  0.0519   gamma=   16.64 GHz
     lambda(    4)=  0.3657   gamma=  766.07 GHz
     lambda(    5)=  0.3469   gamma=  745.81 GHz
     lambda(    6)=  0.2387   gamma=  537.31 GHz
     lambda(    7)=  0.1558   gamma=  446.91 GHz
     lambda(    8)=  0.1515   gamma=  434.99 GHz
     lambda(    9)=  0.1218   gamma=  385.60 GHz
     lambda(   10)=  0.0143   gamma=   51.24 GHz
     lambda(   11)=  0.0158   gamma=   58.94 GHz
     lambda(   12)=  0.0146   gamma=   55.68 GHz
     lambda(   13)=  0.0065   gamma=   27.22 GHz
     lambda(   14)=  0.0049   gamma=   21.33 GHz
     lambda(   15)=  0.0430   gamma=  201.63 GHz
     lambda(   16)=  0.0190   gamma=   91.01 GHz
     lambda(   17)=  0.0080   gamma=   39.32 GHz
     lambda(   18)=  0.0160   gamma=   82.42 GHz
     lambda(   19)=  0.0415   gamma=  245.94 GHz
     lambda(   20)=  0.0119   gamma=   74.66 GHz
     lambda(   21)=  0.0137   gamma=   94.93 GHz
     Gaussian Broadening:   0.040 Ry, ngauss=   0
     DOS =  2.398900 states/spin/Ry/Unit Cell at Ef= 17.142416 eV
     lambda(    1)=  0.1121   gamma=   25.65 GHz
     lambda(    2)=  0.1030   gamma=   24.70 GHz
     lambda(    3)=  0.0523   gamma=   16.88 GHz
     lambda(    4)=  0.3638   gamma=  767.83 GHz
     lambda(    5)=  0.3532   gamma=  765.04 GHz
     lambda(    6)=  0.2393   gamma=  542.65 GHz
     lambda(    7)=  0.1584   gamma=  457.72 GHz
     lambda(    8)=  0.1535   gamma=  444.02 GHz
     lambda(    9)=  0.1225   gamma=  390.90 GHz
     lambda(   10)=  0.0149   gamma=   53.71 GHz
     lambda(   11)=  0.0161   gamma=   60.54 GHz
     lambda(   12)=  0.0149   gamma=   57.08 GHz
     lambda(   13)=  0.0066   gamma=   28.00 GHz
     lambda(   14)=  0.0051   gamma=   22.36 GHz
     lambda(   15)=  0.0438   gamma=  206.85 GHz
     lambda(   16)=  0.0195   gamma=   93.82 GHz
     lambda(   17)=  0.0083   gamma=   41.12 GHz
     lambda(   18)=  0.0164   gamma=   84.72 GHz
     lambda(   19)=  0.0416   gamma=  248.68 GHz
     lambda(   20)=  0.0120   gamma=   75.74 GHz
     lambda(   21)=  0.0137   gamma=   95.76 GHz
     Gaussian Broadening:   0.045 Ry, ngauss=   0
     DOS =  2.416850 states/spin/Ry/Unit Cell at Ef= 17.141341 eV
     lambda(    1)=  0.1144   gamma=   26.37 GHz
     lambda(    2)=  0.1024   gamma=   24.75 GHz
     lambda(    3)=  0.0526   gamma=   17.09 GHz
     lambda(    4)=  0.3616   gamma=  768.82 GHz
     lambda(    5)=  0.3579   gamma=  781.06 GHz
     lambda(    6)=  0.2404   gamma=  549.40 GHz
     lambda(    7)=  0.1612   gamma=  469.41 GHz
     lambda(    8)=  0.1557   gamma=  453.84 GHz
     lambda(    9)=  0.1238   gamma=  397.83 GHz
     lambda(   10)=  0.0155   gamma=   56.28 GHz
     lambda(   11)=  0.0165   gamma=   62.32 GHz
     lambda(   12)=  0.0152   gamma=   58.63 GHz
     lambda(   13)=  0.0068   gamma=   28.87 GHz
     lambda(   14)=  0.0053   gamma=   23.38 GHz
     lambda(   15)=  0.0444   gamma=  211.35 GHz
     lambda(   16)=  0.0199   gamma=   96.79 GHz
     lambda(   17)=  0.0086   gamma=   42.96 GHz
     lambda(   18)=  0.0167   gamma=   87.36 GHz
     lambda(   19)=  0.0417   gamma=  251.05 GHz
     lambda(   20)=  0.0121   gamma=   77.01 GHz
     lambda(   21)=  0.0138   gamma=   97.07 GHz
     Gaussian Broadening:   0.050 Ry, ngauss=   0
     DOS =  2.436152 states/spin/Ry/Unit Cell at Ef= 17.140123 eV
     lambda(    1)=  0.1164   gamma=   27.05 GHz
     lambda(    2)=  0.1016   gamma=   24.75 GHz
     lambda(    3)=  0.0528   gamma=   17.30 GHz
     lambda(    4)=  0.3591   gamma=  769.76 GHz
     lambda(    5)=  0.3616   gamma=  795.45 GHz
     lambda(    6)=  0.2421   gamma=  557.51 GHz
     lambda(    7)=  0.1642   gamma=  481.85 GHz
     lambda(    8)=  0.1581   gamma=  464.35 GHz
     lambda(    9)=  0.1253   gamma=  406.00 GHz
     lambda(   10)=  0.0160   gamma=   58.89 GHz
     lambda(   11)=  0.0169   gamma=   64.30 GHz
     lambda(   12)=  0.0155   gamma=   60.43 GHz
     lambda(   13)=  0.0070   gamma=   29.89 GHz
     lambda(   14)=  0.0055   gamma=   24.46 GHz
     lambda(   15)=  0.0450   gamma=  216.22 GHz
     lambda(   16)=  0.0204   gamma=   99.72 GHz
     lambda(   17)=  0.0089   gamma=   44.87 GHz
     lambda(   18)=  0.0172   gamma=   90.35 GHz
     lambda(   19)=  0.0418   gamma=  253.48 GHz
     lambda(   20)=  0.0123   gamma=   78.56 GHz
     lambda(   21)=  0.0140   gamma=   98.86 GHz
 
 
     Number of q in the star =   24
     List of q in the star:
          1   0.541265877   0.324759526   0.216506351
          2  -0.541265877   0.216506351   0.324759526
          3   0.541265877   0.216506351   0.324759526
          4   0.324759526  -0.541265877   0.216506351
          5  -0.541265877  -0.324759526   0.216506351
          6   0.324759526  -0.216506351  -0.541265877
          7  -0.324759526  -0.216506351   0.541265877
          8   0.324759526   0.216506351   0.541265877
          9   0.216506351  -0.541265877  -0.324759526
         10  -0.216506351   0.541265877  -0.324759526
         11   0.216506351   0.541265877   0.324759526
         12  -0.541265877   0.324759526  -0.216506351
         13   0.541265877  -0.324759526  -0.216506351
         14  -0.541265877  -0.216506351  -0.324759526
         15   0.541265877   0.216506351  -0.324759526
         16   0.541265877  -0.216506351   0.324759526
         17  -0.541265877  -0.324759526  -0.216506351
         18   0.541265877   0.324759526  -0.216506351
         19  -0.216506351  -0.541265877   0.324759526
         20  -0.324759526   0.541265877   0.216506351
         21   0.216506351  -0.324759526   0.541265877
         22  -0.216506351  -0.324759526  -0.541265877
         23   0.216506351   0.324759526  -0.541265877
         24  -0.216506351   0.324759526   0.541265877
 
     init_run     :      0.07s CPU      0.30s WALL (       1 calls)
     electrons    :     74.06s CPU     83.81s WALL (       1 calls)

     Called by init_run:
     wfcinit      :      0.00s CPU      0.10s WALL (       1 calls)
     potinit      :      0.01s CPU      0.13s WALL (       1 calls)
     hinit0       :      0.03s CPU      0.04s WALL (       1 calls)

     Called by electrons:
     c_bands      :     74.02s CPU     83.78s WALL (       1 calls)
     v_of_rho     :      0.01s CPU      0.01s WALL (       2 calls)
     newd         :      0.00s CPU      0.05s WALL (       2 calls)

     Called by c_bands:
     init_us_2    :      3.54s CPU      3.96s WALL (  135456 calls)
     cegterg      :     16.74s CPU     18.02s WALL (    1106 calls)

     Called by *egterg:
     cdiaghg      :      5.75s CPU      6.19s WALL (   17088 calls)
     h_psi        :   1238.37s CPU   1465.97s WALL ( 1523170 calls)
     s_psi        :     31.15s CPU     35.25s WALL ( 3137490 calls)
     g_psi        :      0.05s CPU      0.05s WALL (   16000 calls)

     Called by h_psi:
     h_psi:calbec :     27.97s CPU     31.39s WALL ( 1523170 calls)
     vloc_psi     :   1182.62s CPU   1403.26s WALL ( 1523170 calls)
     add_vuspsi   :     14.80s CPU     16.72s WALL ( 1523170 calls)

     General routines
     calbec       :     77.10s CPU     84.17s WALL ( 3311570 calls)
     fft          :      0.67s CPU      0.97s WALL (    3927 calls)
     ffts         :      2.03s CPU      2.38s WALL (   12311 calls)
     fftw         :   1642.05s CPU   1968.11s WALL (20851378 calls)
     interpolate  :      1.53s CPU      1.85s WALL (     425 calls)
     davcio       :     23.73s CPU    693.10s WALL (  587763 calls)
 
     Parallel routines
 
     PHONON       :  47m51.68s CPU      1h 7m WALL

     INITIALIZATION: 
     phq_setup    :      0.01s CPU      0.03s WALL (       1 calls)
     phq_init     :     13.37s CPU     15.93s WALL (       1 calls)
 
     phq_init     :     13.37s CPU     15.93s WALL (       1 calls)
     set_drhoc    :      0.04s CPU      0.04s WALL (       3 calls)
     init_vloc    :      0.00s CPU      0.04s WALL (       2 calls)
     init_us_1    :      0.05s CPU      0.18s WALL (       2 calls)
     newd         :      0.00s CPU      0.05s WALL (       2 calls)
     dvanqq       :      0.18s CPU      0.18s WALL (       1 calls)
     drho         :      9.09s CPU     10.41s WALL (       1 calls)
 
     DYNAMICAL MATRIX:
     dynmat0      :      2.81s CPU      3.72s WALL (       1 calls)
     phqscf       :   2751.57s CPU   3879.92s WALL (       1 calls)
     dynmatrix    :      0.01s CPU      0.06s WALL (       1 calls)
 
     phqscf       :   2751.57s CPU   3879.92s WALL (       1 calls)
     solve_linter :   2725.82s CPU   3843.64s WALL (      21 calls)
     drhodv       :     25.73s CPU     30.39s WALL (      21 calls)
 
     dynmat0      :      2.81s CPU      3.72s WALL (       1 calls)
     dynmat_us    :      2.77s CPU      3.47s WALL (       1 calls)
     d2ionq       :      0.01s CPU      0.01s WALL (       1 calls)
     dynmatcc     :      0.03s CPU      0.03s WALL (       1 calls)
 
     dynmat_us    :      2.77s CPU      3.47s WALL (       1 calls)
     addusdynmat  :      0.00s CPU      0.00s WALL (       1 calls)
 
     phqscf       :   2751.57s CPU   3879.92s WALL (       1 calls)
     solve_linter :   2725.82s CPU   3843.64s WALL (      21 calls)
 
     solve_linter :   2725.82s CPU   3843.64s WALL (      21 calls)
     dvqpsi_us    :     17.04s CPU     18.49s WALL (   11424 calls)
     ortho        :     59.24s CPU     61.97s WALL (  109344 calls)
     cgsolve      :   1342.49s CPU   1583.88s WALL (  109344 calls)
     incdrhoscf   :    213.93s CPU    262.26s WALL (  109344 calls)
     addusddens   :      3.42s CPU      4.46s WALL (     222 calls)
     vpsifft      :    308.49s CPU    374.02s WALL (  109344 calls)
     dv_of_drho   :      0.57s CPU      0.60s WALL (     201 calls)
     mix_pot      :     10.24s CPU     47.26s WALL (     201 calls)
     psymdvscf    :      3.40s CPU      3.65s WALL (     201 calls)
     newdq        :      2.75s CPU      2.76s WALL (     201 calls)
     adddvscf     :      3.57s CPU      4.05s WALL (  109344 calls)
     drhodvus     :      1.69s CPU      4.67s WALL (      21 calls)
 
     dvqpsi_us    :     17.04s CPU     18.49s WALL (   11424 calls)
     dvqpsi_us_on :      6.49s CPU      6.89s WALL (   11424 calls)
 
     cgsolve      :   1342.49s CPU   1583.88s WALL (  109344 calls)
     ch_psi       :   1323.12s CPU   1561.79s WALL ( 1504976 calls)
 
     ch_psi       :   1323.12s CPU   1561.79s WALL ( 1504976 calls)
     h_psi        :   1238.37s CPU   1465.97s WALL ( 1523170 calls)
     last         :     62.50s CPU     70.38s WALL ( 1504976 calls)
 
     h_psi        :   1238.37s CPU   1465.97s WALL ( 1523170 calls)
     add_vuspsi   :     14.80s CPU     16.72s WALL ( 1523170 calls)
 
     incdrhoscf   :    213.93s CPU    262.26s WALL (  109344 calls)
     addusdbec    :      3.46s CPU      3.87s WALL (  120768 calls)
 
     drhodvus     :      1.69s CPU      4.67s WALL (      21 calls)
 
      Electron-phonon coupling
     elphel       :     86.18s CPU    131.41s WALL (      21 calls)
     elphsum      :     31.28s CPU     32.54s WALL (       1 calls)
 
      General routines
     calbec       :     77.10s CPU     84.17s WALL ( 3311570 calls)
     fft          :      0.67s CPU      0.97s WALL (    3927 calls)
     ffts         :      2.03s CPU      2.38s WALL (   12311 calls)
     fftw         :   1642.05s CPU   1968.11s WALL (20851378 calls)
     davcio       :     23.73s CPU    693.10s WALL (  587763 calls)
     write_rec    :      0.17s CPU     32.24s WALL (     222 calls)
 
 
     PHONON       :  47m51.68s CPU      1h 7m WALL

 
   This run was terminated on:   8:59:47  31Jul2022            

=------------------------------------------------------------------------------=
   JOB DONE.
=------------------------------------------------------------------------------=
