
     Program PHONON v.6.8 starts on 21Jul2022 at 14: 5:23 

     This program is part of the open-source Quantum ESPRESSO suite
     for quantum simulation of materials; please cite
         "P. Giannozzi et al., J. Phys.:Condens. Matter 21 395502 (2009);
         "P. Giannozzi et al., J. Phys.:Condens. Matter 29 465901 (2017);
         "P. Giannozzi et al., J. Chem. Phys. 152 154105 (2020);
          URL http://www.quantum-espresso.org", 
     in publications or presentations arising from this work. More details at
     http://www.quantum-espresso.org/quote

     Parallel version (MPI), running on    48 processors

     MPI processes distributed on     1 nodes
     K-points division:     npool     =       4
     R & G space division:  proc/nbgrp/npool/nimage =      12
     188842 MiB available memory on the printing compute node when the environment starts
 
     Waiting for input...
     Reading input from standard input

     Reading xml data from directory:

     ./tmp/Ca1H6.save/

     IMPORTANT: XC functional enforced from input :
     Exchange-correlation= PBE
                           (   1   4   3   4   0   0   0)
     Any further DFT definition will be discarded
     Please, verify this is what you really want

 
     Parallelization info
     --------------------
     sticks:   dense  smooth     PW     G-vecs:    dense   smooth      PW
     Min         139      46     17                 3602      698     155
     Max         140      47     18                 3604      701     157
     Sum        1669     557    205                43227     8391    1865
 
     Using Slab Decomposition
 
     Reading collected, re-writing distributed wavefunctions

     Saving dvscf to file. Distribute only q points, not irreducible represetations.

     Calculation of q =    0.0000000  -0.1082532   0.5412659

     Subspace diagonalization in iterative solution of the eigenvalue problem:
     a serial algorithm will be used

 
     Parallelization info
     --------------------
     sticks:   dense  smooth     PW     G-vecs:    dense   smooth      PW
     Min         139      46     17                 3602      698     155
     Max         140      47     18                 3604      701     157
     Sum        1669     557    205                43227     8391    1865
 
     Using Slab Decomposition
 

     Title: 
     Electron-phonon coefficients for Ca1H6                                     


     bravais-lattice index     =            0
     lattice parameter (alat)  =       5.5613  a.u.
     unit-cell volume          =     132.4087 (a.u.)^3
     number of atoms/cell      =            7
     number of atomic types    =            2
     number of electrons       =        16.00
     number of Kohn-Sham states=           12
     kinetic-energy cutoff     =      60.0000  Ry
     charge density cutoff     =     720.0000  Ry
     Exchange-correlation= PBE
                           (   1   4   3   4   0   0   0)

     celldm(1)=   5.561340  celldm(2)=   0.000000  celldm(3)=   0.000000
     celldm(4)=   0.000000  celldm(5)=   0.000000  celldm(6)=   0.000000

     crystal axes: (cart. coord. in units of alat)
               a(1) = (  -0.577350   0.577350   0.577350 )  
               a(2) = (   0.577350  -0.577350   0.577350 )  
               a(3) = (   0.577350   0.577350  -0.577350 )  

     reciprocal axes: (cart. coord. in units 2 pi/alat)
               b(1) = ( -0.000000  0.866025  0.866025 )  
               b(2) = (  0.866025 -0.000000  0.866025 )  
               b(3) = (  0.866025  0.866025  0.000000 )  


     PseudoPot. # 1 for Ca read from file:
     /work/home/mayuan/code/my_script/scripts_tests/out2/200.0/pp/ca_pbe_v1.uspp.F.UPF
     MD5 check sum: 403a4c14b9e4d4dfdc3024c9a3812218
     Pseudo is Ultrasoft + core correction, Zval = 10.0
     Generated by new atomic code, or converted to UPF format
     Using radial grid of  845 points,  6 beta functions with: 
                l(1) =   0
                l(2) =   0
                l(3) =   1
                l(4) =   1
                l(5) =   2
                l(6) =   2
     Q(r) pseudized with  8 coefficients,  rinner =    1.500   1.500   1.500
                                                       1.500   1.500

     PseudoPot. # 2 for H  read from file:
     /work/home/mayuan/code/my_script/scripts_tests/out2/200.0/pp/h_pbe_v1.uspp.F.UPF
     MD5 check sum: 3408e3ff4ec8b0a4e358431e7e038a48
     Pseudo is Ultrasoft, Zval =  1.0
     Generated by new atomic code, or converted to UPF format
     Using radial grid of  615 points,  2 beta functions with: 
                l(1) =   0
                l(2) =   0
     Q(r) pseudized with  8 coefficients,  rinner =    0.700

     atomic species   valence    mass     pseudopotential
        Ca            10.00    40.07800     Ca( 1.00)
        H              1.00     1.00794     H ( 1.00)

     48 Sym. Ops., with inversion, found



   Cartesian axes

     site n.     atom                  positions (alat units)
         1           Ca  tau(   1) = (   0.0000000   0.0000000   0.0000000  )
         2           H   tau(   2) = (   0.2886751   0.0000000   0.5773503  )
         3           H   tau(   3) = (   0.2886751   0.5773503   0.0000000  )
         4           H   tau(   4) = (   0.5773503   0.2886751   0.0000000  )
         5           H   tau(   5) = (   0.0000000   0.2886751   0.5773503  )
         6           H   tau(   6) = (   0.0000000   0.5773503   0.2886751  )
         7           H   tau(   7) = (   0.5773503   0.0000000   0.2886751  )

     number of k points=  4352  Methfessel-Paxton smearing, width (Ry)=  0.0200

     Number of k-points >= 100: set verbosity='high' to print them.

     Dense  grid:    43227 G-vectors     FFT dimensions: (  48,  48,  48)

     Smooth grid:     8391 G-vectors     FFT dimensions: (  27,  27,  27)

     Estimated max dynamical RAM per process >       8.36 MB

     Estimated total dynamical RAM >     401.25 MB

     The potential is recalculated from file :
     ./tmp/_ph0/Ca1H6.save/charge-density

     Starting wfcs are   16 atomic wfcs

     Band Structure Calculation
     Davidson diagonalization with overlap

     ethr =  6.25E-11,  avg # of iterations = 15.0

     total cpu time spent up to now is       30.3 secs

     End of band structure calculation

     Number of k-points >= 100: set verbosity='high' to print the bands.

     the Fermi energy is    17.0980 ev

     Writing output data file ./tmp/_ph0/Ca1H6.save/

     Electron-phonon coefficients for Ca1H6                                     

     bravais-lattice index     =            0
     lattice parameter (alat)  =       5.5613  a.u.
     unit-cell volume          =     132.4087 (a.u.)^3
     number of atoms/cell      =            7
     number of atomic types    =            2
     kinetic-energy cut-off    =      60.0000  Ry
     charge density cut-off    =     720.0000  Ry
     convergence threshold     =      1.0E-16
     beta                      =       0.7000
     number of iterations used =            4
     Exchange-correlation= PBE
                           (   1   4   3   4   0   0   0)


     celldm(1)=    5.56134  celldm(2)=    0.00000  celldm(3)=    0.00000
     celldm(4)=    0.00000  celldm(5)=    0.00000  celldm(6)=    0.00000

     crystal axes: (cart. coord. in units of alat)
               a(1) = ( -0.5774  0.5774  0.5774 )  
               a(2) = (  0.5774 -0.5774  0.5774 )  
               a(3) = (  0.5774  0.5774 -0.5774 )  

     reciprocal axes: (cart. coord. in units 2 pi/alat)
               b(1) = ( -0.0000  0.8660  0.8660 )  
               b(2) = (  0.8660 -0.0000  0.8660 )  
               b(3) = (  0.8660  0.8660  0.0000 )  


     Atoms inside the unit cell: 

     Cartesian axes

     site n.  atom      mass           positions (alat units)
        1     Ca  40.0780   tau(    1) = (    0.00000    0.00000    0.00000  )
        2     H    1.0079   tau(    2) = (    0.28868    0.00000    0.57735  )
        3     H    1.0079   tau(    3) = (    0.28868    0.57735    0.00000  )
        4     H    1.0079   tau(    4) = (    0.57735    0.28868    0.00000  )
        5     H    1.0079   tau(    5) = (    0.00000    0.28868    0.57735  )
        6     H    1.0079   tau(    6) = (    0.00000    0.57735    0.28868  )
        7     H    1.0079   tau(    7) = (    0.57735    0.00000    0.28868  )

     Computing dynamical matrix for 
                    q = (   0.0000000  -0.1082532   0.5412659 )
 
      2 Sym.Ops. (no q -> -q+G )


     G cutoff =  564.0682  (   3604 G-vectors)     FFT grid: ( 48, 48, 48)
     G cutoff =  188.0227  (    699 G-vectors)  smooth grid: ( 27, 27, 27)

     number of k points=  4352  Methfessel-Paxton smearing, width (Ry)=  0.0200

     PseudoPot. # 1 for Ca read from file:
     /work/home/mayuan/code/my_script/scripts_tests/out2/200.0/pp/ca_pbe_v1.uspp.F.UPF
     MD5 check sum: 403a4c14b9e4d4dfdc3024c9a3812218
     Pseudo is Ultrasoft + core correction, Zval = 10.0
     Generated by new atomic code, or converted to UPF format
     Using radial grid of  845 points,  6 beta functions with: 
                l(1) =   0
                l(2) =   0
                l(3) =   1
                l(4) =   1
                l(5) =   2
                l(6) =   2
     Q(r) pseudized with  8 coefficients,  rinner =    1.500   1.500   1.500
                                                       1.500   1.500

     PseudoPot. # 2 for H  read from file:
     /work/home/mayuan/code/my_script/scripts_tests/out2/200.0/pp/h_pbe_v1.uspp.F.UPF
     MD5 check sum: 3408e3ff4ec8b0a4e358431e7e038a48
     Pseudo is Ultrasoft, Zval =  1.0
     Generated by new atomic code, or converted to UPF format
     Using radial grid of  615 points,  2 beta functions with: 
                l(1) =   0
                l(2) =   0
     Q(r) pseudized with  8 coefficients,  rinner =    0.700

     Mode symmetry, C_s (m)     point group:


     Atomic displacements:
     There are   21 irreducible representations

     Representation     1      1 modes -  To be done

     Representation     2      1 modes -  To be done

     Representation     3      1 modes -  To be done

     Representation     4      1 modes -  To be done

     Representation     5      1 modes -  To be done

     Representation     6      1 modes -  To be done

     Representation     7      1 modes -  To be done

     Representation     8      1 modes -  To be done

     Representation     9      1 modes -  To be done

     Representation    10      1 modes -  To be done

     Representation    11      1 modes -  To be done

     Representation    12      1 modes -  To be done

     Representation    13      1 modes -  To be done

     Representation    14      1 modes -  To be done

     Representation    15      1 modes -  To be done

     Representation    16      1 modes -  To be done

     Representation    17      1 modes -  To be done

     Representation    18      1 modes -  To be done

     Representation    19      1 modes -  To be done

     Representation    20      1 modes -  To be done

     Representation    21      1 modes -  To be done



     Alpha used in Ewald sum =   2.8000
     PHONON       :     50.96s CPU     58.39s WALL



     Representation #   1 mode #   1

     Self-consistent Calculation

      iter #   1 total cpu time :    71.2 secs   av.it.:   4.0
      thresh= 1.000E-02 alpha_mix =  0.700 |ddv_scf|^2 =  9.937E-07

      iter #   2 total cpu time :   107.0 secs   av.it.:   9.5
      thresh= 9.968E-05 alpha_mix =  0.700 |ddv_scf|^2 =  3.497E-06

      iter #   3 total cpu time :   141.2 secs   av.it.:   8.3
      thresh= 1.870E-04 alpha_mix =  0.700 |ddv_scf|^2 =  1.085E-08

      iter #   4 total cpu time :   175.8 secs   av.it.:   9.4
      thresh= 1.041E-05 alpha_mix =  0.700 |ddv_scf|^2 =  4.428E-10

      iter #   5 total cpu time :   211.3 secs   av.it.:   9.6
      thresh= 2.104E-06 alpha_mix =  0.700 |ddv_scf|^2 =  3.430E-11

      iter #   6 total cpu time :   246.4 secs   av.it.:   9.7
      thresh= 5.857E-07 alpha_mix =  0.700 |ddv_scf|^2 =  1.777E-12

      iter #   7 total cpu time :   281.9 secs   av.it.:   9.7
      thresh= 1.333E-07 alpha_mix =  0.700 |ddv_scf|^2 =  1.258E-13

      iter #   8 total cpu time :   318.3 secs   av.it.:   9.8
      thresh= 3.547E-08 alpha_mix =  0.700 |ddv_scf|^2 =  4.671E-14

      iter #   9 total cpu time :   356.5 secs   av.it.:   9.0
      thresh= 2.161E-08 alpha_mix =  0.700 |ddv_scf|^2 =  1.513E-14

      iter #  10 total cpu time :   391.3 secs   av.it.:   8.8
      thresh= 1.230E-08 alpha_mix =  0.700 |ddv_scf|^2 =  4.858E-16

      iter #  11 total cpu time :   426.1 secs   av.it.:   9.7
      thresh= 2.204E-09 alpha_mix =  0.700 |ddv_scf|^2 =  9.061E-17

     End of self-consistent calculation

     Convergence has been achieved 


     Representation #   2 mode #   2

     Self-consistent Calculation

      iter #   1 total cpu time :   448.6 secs   av.it.:   4.0
      thresh= 1.000E-02 alpha_mix =  0.700 |ddv_scf|^2 =  6.105E-07

      iter #   2 total cpu time :   473.6 secs   av.it.:   9.6
      thresh= 7.813E-05 alpha_mix =  0.700 |ddv_scf|^2 =  1.013E-06

      iter #   3 total cpu time :   497.3 secs   av.it.:   8.7
      thresh= 1.006E-04 alpha_mix =  0.700 |ddv_scf|^2 =  8.916E-08

      iter #   4 total cpu time :   522.6 secs   av.it.:   8.7
      thresh= 2.986E-05 alpha_mix =  0.700 |ddv_scf|^2 =  3.602E-10

      iter #   5 total cpu time :   547.8 secs   av.it.:   9.6
      thresh= 1.898E-06 alpha_mix =  0.700 |ddv_scf|^2 =  1.656E-11

      iter #   6 total cpu time :   574.0 secs   av.it.:   9.7
      thresh= 4.069E-07 alpha_mix =  0.700 |ddv_scf|^2 =  2.090E-12

      iter #   7 total cpu time :   602.4 secs   av.it.:   9.7
      thresh= 1.446E-07 alpha_mix =  0.700 |ddv_scf|^2 =  3.442E-13

      iter #   8 total cpu time :   630.3 secs   av.it.:   9.5
      thresh= 5.867E-08 alpha_mix =  0.700 |ddv_scf|^2 =  1.635E-14

      iter #   9 total cpu time :   659.9 secs   av.it.:   9.4
      thresh= 1.279E-08 alpha_mix =  0.700 |ddv_scf|^2 =  2.684E-14

      iter #  10 total cpu time :   686.4 secs   av.it.:   8.4
      thresh= 1.638E-08 alpha_mix =  0.700 |ddv_scf|^2 =  1.014E-15

      iter #  11 total cpu time :   718.0 secs   av.it.:   9.3
      thresh= 3.185E-09 alpha_mix =  0.700 |ddv_scf|^2 =  2.758E-16

      iter #  12 total cpu time :   747.1 secs   av.it.:   9.0
      thresh= 1.661E-09 alpha_mix =  0.700 |ddv_scf|^2 =  3.533E-17

     End of self-consistent calculation

     Convergence has been achieved 


     Representation #   3 mode #   3

     Self-consistent Calculation

      iter #   1 total cpu time :   769.6 secs   av.it.:   4.0
      thresh= 1.000E-02 alpha_mix =  0.700 |ddv_scf|^2 =  2.365E-06

      iter #   2 total cpu time :   794.7 secs   av.it.:   9.4
      thresh= 1.538E-04 alpha_mix =  0.700 |ddv_scf|^2 =  9.095E-06

      iter #   3 total cpu time :   817.2 secs   av.it.:   8.2
      thresh= 3.016E-04 alpha_mix =  0.700 |ddv_scf|^2 =  9.849E-09

      iter #   4 total cpu time :   842.2 secs   av.it.:   9.5
      thresh= 9.924E-06 alpha_mix =  0.700 |ddv_scf|^2 =  4.821E-10

      iter #   5 total cpu time :   868.4 secs   av.it.:   9.5
      thresh= 2.196E-06 alpha_mix =  0.700 |ddv_scf|^2 =  2.876E-11

      iter #   6 total cpu time :   894.4 secs   av.it.:   9.7
      thresh= 5.362E-07 alpha_mix =  0.700 |ddv_scf|^2 =  1.760E-12

      iter #   7 total cpu time :   921.7 secs   av.it.:   9.7
      thresh= 1.327E-07 alpha_mix =  0.700 |ddv_scf|^2 =  1.063E-13

      iter #   8 total cpu time :   950.2 secs   av.it.:   9.8
      thresh= 3.260E-08 alpha_mix =  0.700 |ddv_scf|^2 =  3.167E-15

      iter #   9 total cpu time :   979.5 secs   av.it.:   9.8
      thresh= 5.628E-09 alpha_mix =  0.700 |ddv_scf|^2 =  2.923E-15

      iter #  10 total cpu time :  1007.5 secs   av.it.:   8.8
      thresh= 5.406E-09 alpha_mix =  0.700 |ddv_scf|^2 =  2.454E-16

      iter #  11 total cpu time :  1037.8 secs   av.it.:   9.0
      thresh= 1.566E-09 alpha_mix =  0.700 |ddv_scf|^2 =  1.587E-17

     End of self-consistent calculation

     Convergence has been achieved 


     Representation #   4 mode #   4

     Self-consistent Calculation

      iter #   1 total cpu time :  1059.0 secs   av.it.:   4.1
      thresh= 1.000E-02 alpha_mix =  0.700 |ddv_scf|^2 =  1.803E-06

      iter #   2 total cpu time :  1081.1 secs   av.it.:   9.5
      thresh= 1.343E-04 alpha_mix =  0.700 |ddv_scf|^2 =  6.380E-06

      iter #   3 total cpu time :  1106.2 secs   av.it.:   8.3
      thresh= 2.526E-04 alpha_mix =  0.700 |ddv_scf|^2 =  2.837E-08

      iter #   4 total cpu time :  1131.3 secs   av.it.:   9.2
      thresh= 1.684E-05 alpha_mix =  0.700 |ddv_scf|^2 =  4.361E-10

      iter #   5 total cpu time :  1159.5 secs   av.it.:   9.6
      thresh= 2.088E-06 alpha_mix =  0.700 |ddv_scf|^2 =  1.932E-11

      iter #   6 total cpu time :  1190.6 secs   av.it.:   9.7
      thresh= 4.396E-07 alpha_mix =  0.700 |ddv_scf|^2 =  1.079E-12

      iter #   7 total cpu time :  1220.3 secs   av.it.:   9.7
      thresh= 1.039E-07 alpha_mix =  0.700 |ddv_scf|^2 =  7.690E-14

      iter #   8 total cpu time :  1249.9 secs   av.it.:   9.8
      thresh= 2.773E-08 alpha_mix =  0.700 |ddv_scf|^2 =  4.004E-14

      iter #   9 total cpu time :  1280.9 secs   av.it.:   8.8
      thresh= 2.001E-08 alpha_mix =  0.700 |ddv_scf|^2 =  1.087E-14

      iter #  10 total cpu time :  1314.6 secs   av.it.:   8.8
      thresh= 1.043E-08 alpha_mix =  0.700 |ddv_scf|^2 =  4.366E-16

      iter #  11 total cpu time :  1347.2 secs   av.it.:   9.5
      thresh= 2.090E-09 alpha_mix =  0.700 |ddv_scf|^2 =  2.023E-16

      iter #  12 total cpu time :  1378.9 secs   av.it.:   8.9
      thresh= 1.422E-09 alpha_mix =  0.700 |ddv_scf|^2 =  2.458E-17

     End of self-consistent calculation

     Convergence has been achieved 


     Representation #   5 mode #   5

     Self-consistent Calculation

      iter #   1 total cpu time :  1402.9 secs   av.it.:   4.2
      thresh= 1.000E-02 alpha_mix =  0.700 |ddv_scf|^2 =  2.047E-06

      iter #   2 total cpu time :  1427.5 secs   av.it.:   9.5
      thresh= 1.431E-04 alpha_mix =  0.700 |ddv_scf|^2 =  6.325E-06

      iter #   3 total cpu time :  1452.7 secs   av.it.:   8.3
      thresh= 2.515E-04 alpha_mix =  0.700 |ddv_scf|^2 =  7.098E-08

      iter #   4 total cpu time :  1481.2 secs   av.it.:   9.0
      thresh= 2.664E-05 alpha_mix =  0.700 |ddv_scf|^2 =  6.606E-10

      iter #   5 total cpu time :  1510.1 secs   av.it.:   9.5
      thresh= 2.570E-06 alpha_mix =  0.700 |ddv_scf|^2 =  3.210E-11

      iter #   6 total cpu time :  1538.7 secs   av.it.:   9.6
      thresh= 5.666E-07 alpha_mix =  0.700 |ddv_scf|^2 =  1.116E-12

      iter #   7 total cpu time :  1567.4 secs   av.it.:   9.8
      thresh= 1.056E-07 alpha_mix =  0.700 |ddv_scf|^2 =  1.227E-13

      iter #   8 total cpu time :  1596.6 secs   av.it.:   9.8
      thresh= 3.502E-08 alpha_mix =  0.700 |ddv_scf|^2 =  6.224E-14

      iter #   9 total cpu time :  1628.5 secs   av.it.:   8.9
      thresh= 2.495E-08 alpha_mix =  0.700 |ddv_scf|^2 =  1.756E-14

      iter #  10 total cpu time :  1660.0 secs   av.it.:   8.8
      thresh= 1.325E-08 alpha_mix =  0.700 |ddv_scf|^2 =  1.007E-15

      iter #  11 total cpu time :  1691.6 secs   av.it.:   9.5
      thresh= 3.173E-09 alpha_mix =  0.700 |ddv_scf|^2 =  6.732E-17

     End of self-consistent calculation

     Convergence has been achieved 


     Representation #   6 mode #   6

     Self-consistent Calculation

      iter #   1 total cpu time :  1714.6 secs   av.it.:   4.1
      thresh= 1.000E-02 alpha_mix =  0.700 |ddv_scf|^2 =  8.681E-07

      iter #   2 total cpu time :  1738.7 secs   av.it.:   9.7
      thresh= 9.317E-05 alpha_mix =  0.700 |ddv_scf|^2 =  2.509E-06

      iter #   3 total cpu time :  1763.6 secs   av.it.:   8.5
      thresh= 1.584E-04 alpha_mix =  0.700 |ddv_scf|^2 =  4.021E-08

      iter #   4 total cpu time :  1789.7 secs   av.it.:   9.1
      thresh= 2.005E-05 alpha_mix =  0.700 |ddv_scf|^2 =  5.694E-10

      iter #   5 total cpu time :  1817.7 secs   av.it.:   9.6
      thresh= 2.386E-06 alpha_mix =  0.700 |ddv_scf|^2 =  2.805E-11

      iter #   6 total cpu time :  1846.9 secs   av.it.:   9.7
      thresh= 5.297E-07 alpha_mix =  0.700 |ddv_scf|^2 =  1.183E-12

      iter #   7 total cpu time :  1875.6 secs   av.it.:   9.8
      thresh= 1.088E-07 alpha_mix =  0.700 |ddv_scf|^2 =  1.124E-13

      iter #   8 total cpu time :  1904.5 secs   av.it.:   9.7
      thresh= 3.353E-08 alpha_mix =  0.700 |ddv_scf|^2 =  2.510E-14

      iter #   9 total cpu time :  1933.6 secs   av.it.:   9.6
      thresh= 1.584E-08 alpha_mix =  0.700 |ddv_scf|^2 =  4.159E-14

      iter #  10 total cpu time :  1962.9 secs   av.it.:   8.4
      thresh= 2.039E-08 alpha_mix =  0.700 |ddv_scf|^2 =  6.393E-16

      iter #  11 total cpu time :  1994.1 secs   av.it.:   9.6
      thresh= 2.528E-09 alpha_mix =  0.700 |ddv_scf|^2 =  9.334E-17

     End of self-consistent calculation

     Convergence has been achieved 


     Representation #   7 mode #   7

     Self-consistent Calculation

      iter #   1 total cpu time :  2017.7 secs   av.it.:   6.9
      thresh= 1.000E-02 alpha_mix =  0.700 |ddv_scf|^2 =  2.321E-04

      iter #   2 total cpu time :  2040.3 secs   av.it.:   9.5
      thresh= 1.524E-03 alpha_mix =  0.700 |ddv_scf|^2 =  8.983E-04

      iter #   3 total cpu time :  2064.9 secs   av.it.:   8.2
      thresh= 2.997E-03 alpha_mix =  0.700 |ddv_scf|^2 =  1.851E-06

      iter #   4 total cpu time :  2089.3 secs   av.it.:   9.3
      thresh= 1.361E-04 alpha_mix =  0.700 |ddv_scf|^2 =  2.291E-08

      iter #   5 total cpu time :  2115.0 secs   av.it.:   9.6
      thresh= 1.514E-05 alpha_mix =  0.700 |ddv_scf|^2 =  1.086E-09

      iter #   6 total cpu time :  2142.7 secs   av.it.:   9.3
      thresh= 3.295E-06 alpha_mix =  0.700 |ddv_scf|^2 =  3.717E-11

      iter #   7 total cpu time :  2172.0 secs   av.it.:   9.6
      thresh= 6.097E-07 alpha_mix =  0.700 |ddv_scf|^2 =  1.535E-12

      iter #   8 total cpu time :  2200.8 secs   av.it.:   9.9
      thresh= 1.239E-07 alpha_mix =  0.700 |ddv_scf|^2 =  2.364E-13

      iter #   9 total cpu time :  2230.3 secs   av.it.:   9.5
      thresh= 4.862E-08 alpha_mix =  0.700 |ddv_scf|^2 =  5.797E-14

      iter #  10 total cpu time :  2260.3 secs   av.it.:   8.9
      thresh= 2.408E-08 alpha_mix =  0.700 |ddv_scf|^2 =  1.289E-14

      iter #  11 total cpu time :  2289.7 secs   av.it.:   8.8
      thresh= 1.135E-08 alpha_mix =  0.700 |ddv_scf|^2 =  6.064E-16

      iter #  12 total cpu time :  2319.8 secs   av.it.:   9.3
      thresh= 2.462E-09 alpha_mix =  0.700 |ddv_scf|^2 =  5.675E-17

     End of self-consistent calculation

     Convergence has been achieved 


     Representation #   8 mode #   8

     Self-consistent Calculation

      iter #   1 total cpu time :  2343.6 secs   av.it.:   4.1
      thresh= 1.000E-02 alpha_mix =  0.700 |ddv_scf|^2 =  1.894E-06

      iter #   2 total cpu time :  2367.6 secs   av.it.:   9.5
      thresh= 1.376E-04 alpha_mix =  0.700 |ddv_scf|^2 =  6.928E-06

      iter #   3 total cpu time :  2390.0 secs   av.it.:   8.3
      thresh= 2.632E-04 alpha_mix =  0.700 |ddv_scf|^2 =  2.150E-08

      iter #   4 total cpu time :  2415.0 secs   av.it.:   9.3
      thresh= 1.466E-05 alpha_mix =  0.700 |ddv_scf|^2 =  4.665E-10

      iter #   5 total cpu time :  2442.0 secs   av.it.:   9.6
      thresh= 2.160E-06 alpha_mix =  0.700 |ddv_scf|^2 =  2.558E-11

      iter #   6 total cpu time :  2469.2 secs   av.it.:   9.7
      thresh= 5.058E-07 alpha_mix =  0.700 |ddv_scf|^2 =  1.143E-12

      iter #   7 total cpu time :  2498.7 secs   av.it.:   9.7
      thresh= 1.069E-07 alpha_mix =  0.700 |ddv_scf|^2 =  7.891E-14

      iter #   8 total cpu time :  2528.7 secs   av.it.:   9.8
      thresh= 2.809E-08 alpha_mix =  0.700 |ddv_scf|^2 =  5.611E-14

      iter #   9 total cpu time :  2558.7 secs   av.it.:   8.8
      thresh= 2.369E-08 alpha_mix =  0.700 |ddv_scf|^2 =  1.190E-14

      iter #  10 total cpu time :  2589.5 secs   av.it.:   8.8
      thresh= 1.091E-08 alpha_mix =  0.700 |ddv_scf|^2 =  6.739E-16

      iter #  11 total cpu time :  2621.0 secs   av.it.:   9.4
      thresh= 2.596E-09 alpha_mix =  0.700 |ddv_scf|^2 =  3.329E-16

      iter #  12 total cpu time :  2650.4 secs   av.it.:   8.9
      thresh= 1.825E-09 alpha_mix =  0.700 |ddv_scf|^2 =  1.995E-17

     End of self-consistent calculation

     Convergence has been achieved 


     Representation #   9 mode #   9

     Self-consistent Calculation

      iter #   1 total cpu time :  2672.8 secs   av.it.:   4.0
      thresh= 1.000E-02 alpha_mix =  0.700 |ddv_scf|^2 =  4.813E-07

      iter #   2 total cpu time :  2694.7 secs   av.it.:   9.7
      thresh= 6.937E-05 alpha_mix =  0.700 |ddv_scf|^2 =  1.036E-06

      iter #   3 total cpu time :  2716.1 secs   av.it.:   8.6
      thresh= 1.018E-04 alpha_mix =  0.700 |ddv_scf|^2 =  4.525E-08

      iter #   4 total cpu time :  2738.8 secs   av.it.:   8.9
      thresh= 2.127E-05 alpha_mix =  0.700 |ddv_scf|^2 =  7.437E-10

      iter #   5 total cpu time :  2761.7 secs   av.it.:   9.5
      thresh= 2.727E-06 alpha_mix =  0.700 |ddv_scf|^2 =  3.070E-11

      iter #   6 total cpu time :  2787.8 secs   av.it.:   9.7
      thresh= 5.541E-07 alpha_mix =  0.700 |ddv_scf|^2 =  8.853E-13

      iter #   7 total cpu time :  2813.0 secs   av.it.:   9.8
      thresh= 9.409E-08 alpha_mix =  0.700 |ddv_scf|^2 =  8.539E-14

      iter #   8 total cpu time :  2837.9 secs   av.it.:   9.7
      thresh= 2.922E-08 alpha_mix =  0.700 |ddv_scf|^2 =  2.060E-14

      iter #   9 total cpu time :  2864.7 secs   av.it.:   9.5
      thresh= 1.435E-08 alpha_mix =  0.700 |ddv_scf|^2 =  2.560E-14

      iter #  10 total cpu time :  2892.8 secs   av.it.:   8.3
      thresh= 1.600E-08 alpha_mix =  0.700 |ddv_scf|^2 =  6.192E-16

      iter #  11 total cpu time :  2921.9 secs   av.it.:   9.5
      thresh= 2.488E-09 alpha_mix =  0.700 |ddv_scf|^2 =  1.392E-16

      iter #  12 total cpu time :  2950.5 secs   av.it.:   9.3
      thresh= 1.180E-09 alpha_mix =  0.700 |ddv_scf|^2 =  3.576E-17

     End of self-consistent calculation

     Convergence has been achieved 


     Representation #  10 mode #  10

     Self-consistent Calculation

      iter #   1 total cpu time :  2973.7 secs   av.it.:   4.2
      thresh= 1.000E-02 alpha_mix =  0.700 |ddv_scf|^2 =  3.168E-06

      iter #   2 total cpu time :  2999.1 secs   av.it.:   9.4
      thresh= 1.780E-04 alpha_mix =  0.700 |ddv_scf|^2 =  1.218E-05

      iter #   3 total cpu time :  3025.9 secs   av.it.:   8.2
      thresh= 3.490E-04 alpha_mix =  0.700 |ddv_scf|^2 =  1.029E-08

      iter #   4 total cpu time :  3052.9 secs   av.it.:   9.6
      thresh= 1.014E-05 alpha_mix =  0.700 |ddv_scf|^2 =  6.440E-10

      iter #   5 total cpu time :  3080.6 secs   av.it.:   9.5
      thresh= 2.538E-06 alpha_mix =  0.700 |ddv_scf|^2 =  3.675E-11

      iter #   6 total cpu time :  3109.2 secs   av.it.:   9.7
      thresh= 6.062E-07 alpha_mix =  0.700 |ddv_scf|^2 =  1.610E-12

      iter #   7 total cpu time :  3137.4 secs   av.it.:   9.7
      thresh= 1.269E-07 alpha_mix =  0.700 |ddv_scf|^2 =  1.289E-13

      iter #   8 total cpu time :  3166.5 secs   av.it.:   9.8
      thresh= 3.591E-08 alpha_mix =  0.700 |ddv_scf|^2 =  7.645E-14

      iter #   9 total cpu time :  3193.6 secs   av.it.:   8.9
      thresh= 2.765E-08 alpha_mix =  0.700 |ddv_scf|^2 =  1.159E-14

      iter #  10 total cpu time :  3225.2 secs   av.it.:   8.9
      thresh= 1.076E-08 alpha_mix =  0.700 |ddv_scf|^2 =  3.604E-16

      iter #  11 total cpu time :  3254.2 secs   av.it.:   9.7
      thresh= 1.898E-09 alpha_mix =  0.700 |ddv_scf|^2 =  7.421E-17

     End of self-consistent calculation

     Convergence has been achieved 


     Representation #  11 mode #  11

     Self-consistent Calculation

      iter #   1 total cpu time :  3278.9 secs   av.it.:   6.6
      thresh= 1.000E-02 alpha_mix =  0.700 |ddv_scf|^2 =  6.012E-05

      iter #   2 total cpu time :  3301.5 secs   av.it.:   9.7
      thresh= 7.754E-04 alpha_mix =  0.700 |ddv_scf|^2 =  1.832E-04

      iter #   3 total cpu time :  3324.5 secs   av.it.:   8.3
      thresh= 1.353E-03 alpha_mix =  0.700 |ddv_scf|^2 =  2.198E-06

      iter #   4 total cpu time :  3348.7 secs   av.it.:   9.2
      thresh= 1.483E-04 alpha_mix =  0.700 |ddv_scf|^2 =  2.630E-08

      iter #   5 total cpu time :  3376.2 secs   av.it.:   9.5
      thresh= 1.622E-05 alpha_mix =  0.700 |ddv_scf|^2 =  1.037E-09

      iter #   6 total cpu time :  3402.4 secs   av.it.:   9.6
      thresh= 3.220E-06 alpha_mix =  0.700 |ddv_scf|^2 =  6.924E-11

      iter #   7 total cpu time :  3429.4 secs   av.it.:   9.7
      thresh= 8.321E-07 alpha_mix =  0.700 |ddv_scf|^2 =  7.679E-12

      iter #   8 total cpu time :  3457.2 secs   av.it.:   9.7
      thresh= 2.771E-07 alpha_mix =  0.700 |ddv_scf|^2 =  4.158E-13

      iter #   9 total cpu time :  3485.1 secs   av.it.:   9.5
      thresh= 6.448E-08 alpha_mix =  0.700 |ddv_scf|^2 =  6.059E-13

      iter #  10 total cpu time :  3515.0 secs   av.it.:   8.5
      thresh= 7.784E-08 alpha_mix =  0.700 |ddv_scf|^2 =  9.557E-15

      iter #  11 total cpu time :  3545.1 secs   av.it.:   9.3
      thresh= 9.776E-09 alpha_mix =  0.700 |ddv_scf|^2 =  5.927E-16

      iter #  12 total cpu time :  3576.1 secs   av.it.:   9.7
      thresh= 2.435E-09 alpha_mix =  0.700 |ddv_scf|^2 =  3.145E-16

      iter #  13 total cpu time :  3607.0 secs   av.it.:   9.0
      thresh= 1.773E-09 alpha_mix =  0.700 |ddv_scf|^2 =  6.393E-17

     End of self-consistent calculation

     Convergence has been achieved 


     Representation #  12 mode #  12

     Self-consistent Calculation

      iter #   1 total cpu time :  3630.9 secs   av.it.:   4.0
      thresh= 1.000E-02 alpha_mix =  0.700 |ddv_scf|^2 =  1.977E-06

      iter #   2 total cpu time :  3655.8 secs   av.it.:   9.4
      thresh= 1.406E-04 alpha_mix =  0.700 |ddv_scf|^2 =  7.614E-06

      iter #   3 total cpu time :  3678.9 secs   av.it.:   8.2
      thresh= 2.759E-04 alpha_mix =  0.700 |ddv_scf|^2 =  5.292E-09

      iter #   4 total cpu time :  3703.2 secs   av.it.:   9.6
      thresh= 7.275E-06 alpha_mix =  0.700 |ddv_scf|^2 =  2.671E-10

      iter #   5 total cpu time :  3729.4 secs   av.it.:   9.6
      thresh= 1.634E-06 alpha_mix =  0.700 |ddv_scf|^2 =  2.125E-11

      iter #   6 total cpu time :  3757.0 secs   av.it.:   9.7
      thresh= 4.610E-07 alpha_mix =  0.700 |ddv_scf|^2 =  1.699E-12

      iter #   7 total cpu time :  3786.0 secs   av.it.:   9.7
      thresh= 1.303E-07 alpha_mix =  0.700 |ddv_scf|^2 =  1.303E-13

      iter #   8 total cpu time :  3816.6 secs   av.it.:   9.8
      thresh= 3.609E-08 alpha_mix =  0.700 |ddv_scf|^2 =  3.671E-15

      iter #   9 total cpu time :  3848.0 secs   av.it.:   9.8
      thresh= 6.059E-09 alpha_mix =  0.700 |ddv_scf|^2 =  2.342E-15

      iter #  10 total cpu time :  3877.0 secs   av.it.:   8.9
      thresh= 4.839E-09 alpha_mix =  0.700 |ddv_scf|^2 =  3.367E-16

      iter #  11 total cpu time :  3906.3 secs   av.it.:   8.9
      thresh= 1.835E-09 alpha_mix =  0.700 |ddv_scf|^2 =  4.171E-18

     End of self-consistent calculation

     Convergence has been achieved 


     Representation #  13 mode #  13

     Self-consistent Calculation

      iter #   1 total cpu time :  3931.8 secs   av.it.:   3.9
      thresh= 1.000E-02 alpha_mix =  0.700 |ddv_scf|^2 =  9.047E-07

      iter #   2 total cpu time :  3953.8 secs   av.it.:   9.5
      thresh= 9.512E-05 alpha_mix =  0.700 |ddv_scf|^2 =  2.956E-06

      iter #   3 total cpu time :  3979.9 secs   av.it.:   8.3
      thresh= 1.719E-04 alpha_mix =  0.700 |ddv_scf|^2 =  1.921E-08

      iter #   4 total cpu time :  4002.9 secs   av.it.:   9.2
      thresh= 1.386E-05 alpha_mix =  0.700 |ddv_scf|^2 =  5.947E-10

      iter #   5 total cpu time :  4027.6 secs   av.it.:   9.5
      thresh= 2.439E-06 alpha_mix =  0.700 |ddv_scf|^2 =  2.954E-11

      iter #   6 total cpu time :  4056.4 secs   av.it.:   9.7
      thresh= 5.435E-07 alpha_mix =  0.700 |ddv_scf|^2 =  1.435E-12

      iter #   7 total cpu time :  4083.3 secs   av.it.:   9.8
      thresh= 1.198E-07 alpha_mix =  0.700 |ddv_scf|^2 =  1.055E-13

      iter #   8 total cpu time :  4109.9 secs   av.it.:   9.8
      thresh= 3.249E-08 alpha_mix =  0.700 |ddv_scf|^2 =  2.499E-14

      iter #   9 total cpu time :  4139.7 secs   av.it.:   9.3
      thresh= 1.581E-08 alpha_mix =  0.700 |ddv_scf|^2 =  1.244E-14

      iter #  10 total cpu time :  4168.1 secs   av.it.:   8.7
      thresh= 1.116E-08 alpha_mix =  0.700 |ddv_scf|^2 =  5.982E-16

      iter #  11 total cpu time :  4197.3 secs   av.it.:   9.5
      thresh= 2.446E-09 alpha_mix =  0.700 |ddv_scf|^2 =  6.583E-17

     End of self-consistent calculation

     Convergence has been achieved 


     Representation #  14 mode #  14

     Self-consistent Calculation

      iter #   1 total cpu time :  4222.5 secs   av.it.:   3.6
      thresh= 1.000E-02 alpha_mix =  0.700 |ddv_scf|^2 =  3.445E-08

      iter #   2 total cpu time :  4248.2 secs   av.it.:   9.5
      thresh= 1.856E-05 alpha_mix =  0.700 |ddv_scf|^2 =  3.592E-09

      iter #   3 total cpu time :  4278.2 secs   av.it.:   9.5
      thresh= 5.993E-06 alpha_mix =  0.700 |ddv_scf|^2 =  3.842E-10

      iter #   4 total cpu time :  4304.5 secs   av.it.:   9.3
      thresh= 1.960E-06 alpha_mix =  0.700 |ddv_scf|^2 =  5.493E-12

      iter #   5 total cpu time :  4332.7 secs   av.it.:   9.2
      thresh= 2.344E-07 alpha_mix =  0.700 |ddv_scf|^2 =  7.083E-14

      iter #   6 total cpu time :  4362.1 secs   av.it.:   9.6
      thresh= 2.661E-08 alpha_mix =  0.700 |ddv_scf|^2 =  2.066E-15

      iter #   7 total cpu time :  4389.1 secs   av.it.:   9.5
      thresh= 4.545E-09 alpha_mix =  0.700 |ddv_scf|^2 =  8.193E-17

     End of self-consistent calculation

     Convergence has been achieved 


     Representation #  15 mode #  15

     Self-consistent Calculation

      iter #   1 total cpu time :  4416.4 secs   av.it.:   6.5
      thresh= 1.000E-02 alpha_mix =  0.700 |ddv_scf|^2 =  2.121E-05

      iter #   2 total cpu time :  4442.8 secs   av.it.:   9.5
      thresh= 4.605E-04 alpha_mix =  0.700 |ddv_scf|^2 =  6.010E-06

      iter #   3 total cpu time :  4467.4 secs   av.it.:   9.2
      thresh= 2.452E-04 alpha_mix =  0.700 |ddv_scf|^2 =  4.379E-09

      iter #   4 total cpu time :  4494.8 secs   av.it.:   9.6
      thresh= 6.617E-06 alpha_mix =  0.700 |ddv_scf|^2 =  3.055E-10

      iter #   5 total cpu time :  4523.3 secs   av.it.:   9.1
      thresh= 1.748E-06 alpha_mix =  0.700 |ddv_scf|^2 =  2.970E-12

      iter #   6 total cpu time :  4552.2 secs   av.it.:   9.4
      thresh= 1.724E-07 alpha_mix =  0.700 |ddv_scf|^2 =  2.139E-14

      iter #   7 total cpu time :  4583.6 secs   av.it.:   8.9
      thresh= 1.462E-08 alpha_mix =  0.700 |ddv_scf|^2 =  1.373E-15

      iter #   8 total cpu time :  4617.9 secs   av.it.:   9.1
      thresh= 3.706E-09 alpha_mix =  0.700 |ddv_scf|^2 =  5.028E-18

     End of self-consistent calculation

     Convergence has been achieved 


     Representation #  16 mode #  16

     Self-consistent Calculation

      iter #   1 total cpu time :  4645.0 secs   av.it.:   4.0
      thresh= 1.000E-02 alpha_mix =  0.700 |ddv_scf|^2 =  1.879E-07

      iter #   2 total cpu time :  4669.0 secs   av.it.:   9.5
      thresh= 4.334E-05 alpha_mix =  0.700 |ddv_scf|^2 =  4.013E-08

      iter #   3 total cpu time :  4693.8 secs   av.it.:   9.3
      thresh= 2.003E-05 alpha_mix =  0.700 |ddv_scf|^2 =  3.773E-10

      iter #   4 total cpu time :  4719.2 secs   av.it.:   9.5
      thresh= 1.942E-06 alpha_mix =  0.700 |ddv_scf|^2 =  8.455E-12

      iter #   5 total cpu time :  4746.5 secs   av.it.:   9.5
      thresh= 2.908E-07 alpha_mix =  0.700 |ddv_scf|^2 =  2.207E-13

      iter #   6 total cpu time :  4774.9 secs   av.it.:   9.5
      thresh= 4.698E-08 alpha_mix =  0.700 |ddv_scf|^2 =  2.028E-15

      iter #   7 total cpu time :  4802.6 secs   av.it.:   9.5
      thresh= 4.504E-09 alpha_mix =  0.700 |ddv_scf|^2 =  8.896E-17

     End of self-consistent calculation

     Convergence has been achieved 


     Representation #  17 mode #  17

     Self-consistent Calculation

      iter #   1 total cpu time :  4830.1 secs   av.it.:   3.6
      thresh= 1.000E-02 alpha_mix =  0.700 |ddv_scf|^2 =  2.658E-08

      iter #   2 total cpu time :  4855.0 secs   av.it.:   9.6
      thresh= 1.630E-05 alpha_mix =  0.700 |ddv_scf|^2 =  2.286E-09

      iter #   3 total cpu time :  4880.9 secs   av.it.:   9.6
      thresh= 4.781E-06 alpha_mix =  0.700 |ddv_scf|^2 =  3.557E-10

      iter #   4 total cpu time :  4909.4 secs   av.it.:   9.4
      thresh= 1.886E-06 alpha_mix =  0.700 |ddv_scf|^2 =  4.433E-12

      iter #   5 total cpu time :  4935.0 secs   av.it.:   9.2
      thresh= 2.105E-07 alpha_mix =  0.700 |ddv_scf|^2 =  3.348E-14

      iter #   6 total cpu time :  4963.6 secs   av.it.:   9.7
      thresh= 1.830E-08 alpha_mix =  0.700 |ddv_scf|^2 =  1.515E-15

      iter #   7 total cpu time :  4995.7 secs   av.it.:   9.6
      thresh= 3.892E-09 alpha_mix =  0.700 |ddv_scf|^2 =  6.367E-17

     End of self-consistent calculation

     Convergence has been achieved 


     Representation #  18 mode #  18

     Self-consistent Calculation

      iter #   1 total cpu time :  5019.5 secs   av.it.:   4.0
      thresh= 1.000E-02 alpha_mix =  0.700 |ddv_scf|^2 =  1.879E-07

      iter #   2 total cpu time :  5042.9 secs   av.it.:   9.5
      thresh= 4.334E-05 alpha_mix =  0.700 |ddv_scf|^2 =  4.013E-08

      iter #   3 total cpu time :  5067.4 secs   av.it.:   9.3
      thresh= 2.003E-05 alpha_mix =  0.700 |ddv_scf|^2 =  3.773E-10

      iter #   4 total cpu time :  5091.8 secs   av.it.:   9.5
      thresh= 1.942E-06 alpha_mix =  0.700 |ddv_scf|^2 =  8.455E-12

      iter #   5 total cpu time :  5117.7 secs   av.it.:   9.5
      thresh= 2.908E-07 alpha_mix =  0.700 |ddv_scf|^2 =  2.207E-13

      iter #   6 total cpu time :  5144.1 secs   av.it.:   9.5
      thresh= 4.698E-08 alpha_mix =  0.700 |ddv_scf|^2 =  2.028E-15

      iter #   7 total cpu time :  5171.5 secs   av.it.:   9.5
      thresh= 4.504E-09 alpha_mix =  0.700 |ddv_scf|^2 =  8.896E-17

     End of self-consistent calculation

     Convergence has been achieved 


     Representation #  19 mode #  19

     Self-consistent Calculation

      iter #   1 total cpu time :  5197.5 secs   av.it.:   4.0
      thresh= 1.000E-02 alpha_mix =  0.700 |ddv_scf|^2 =  1.902E-07

      iter #   2 total cpu time :  5222.0 secs   av.it.:   9.5
      thresh= 4.361E-05 alpha_mix =  0.700 |ddv_scf|^2 =  3.984E-08

      iter #   3 total cpu time :  5249.7 secs   av.it.:   9.3
      thresh= 1.996E-05 alpha_mix =  0.700 |ddv_scf|^2 =  3.924E-10

      iter #   4 total cpu time :  5276.8 secs   av.it.:   9.6
      thresh= 1.981E-06 alpha_mix =  0.700 |ddv_scf|^2 =  1.038E-11

      iter #   5 total cpu time :  5305.6 secs   av.it.:   9.5
      thresh= 3.222E-07 alpha_mix =  0.700 |ddv_scf|^2 =  2.245E-13

      iter #   6 total cpu time :  5334.6 secs   av.it.:   9.4
      thresh= 4.738E-08 alpha_mix =  0.700 |ddv_scf|^2 =  1.698E-15

      iter #   7 total cpu time :  5367.8 secs   av.it.:   9.3
      thresh= 4.121E-09 alpha_mix =  0.700 |ddv_scf|^2 =  9.380E-17

     End of self-consistent calculation

     Convergence has been achieved 


     Representation #  20 mode #  20

     Self-consistent Calculation

      iter #   1 total cpu time :  5393.9 secs   av.it.:   4.0
      thresh= 1.000E-02 alpha_mix =  0.700 |ddv_scf|^2 =  1.902E-07

      iter #   2 total cpu time :  5416.5 secs   av.it.:   9.5
      thresh= 4.361E-05 alpha_mix =  0.700 |ddv_scf|^2 =  3.984E-08

      iter #   3 total cpu time :  5442.3 secs   av.it.:   9.3
      thresh= 1.996E-05 alpha_mix =  0.700 |ddv_scf|^2 =  3.924E-10

      iter #   4 total cpu time :  5470.9 secs   av.it.:   9.6
      thresh= 1.981E-06 alpha_mix =  0.700 |ddv_scf|^2 =  1.038E-11

      iter #   5 total cpu time :  5499.1 secs   av.it.:   9.5
      thresh= 3.222E-07 alpha_mix =  0.700 |ddv_scf|^2 =  2.245E-13

      iter #   6 total cpu time :  5528.6 secs   av.it.:   9.4
      thresh= 4.738E-08 alpha_mix =  0.700 |ddv_scf|^2 =  1.698E-15

      iter #   7 total cpu time :  5560.0 secs   av.it.:   9.3
      thresh= 4.121E-09 alpha_mix =  0.700 |ddv_scf|^2 =  9.380E-17

     End of self-consistent calculation

     Convergence has been achieved 


     Representation #  21 mode #  21

     Self-consistent Calculation

      iter #   1 total cpu time :  5584.9 secs   av.it.:   3.7
      thresh= 1.000E-02 alpha_mix =  0.700 |ddv_scf|^2 =  5.107E-08

      iter #   2 total cpu time :  5614.2 secs   av.it.:   9.5
      thresh= 2.260E-05 alpha_mix =  0.700 |ddv_scf|^2 =  8.181E-09

      iter #   3 total cpu time :  5642.8 secs   av.it.:   9.4
      thresh= 9.045E-06 alpha_mix =  0.700 |ddv_scf|^2 =  3.665E-10

      iter #   4 total cpu time :  5674.8 secs   av.it.:   9.3
      thresh= 1.914E-06 alpha_mix =  0.700 |ddv_scf|^2 =  4.420E-12

      iter #   5 total cpu time :  5703.8 secs   av.it.:   9.3
      thresh= 2.102E-07 alpha_mix =  0.700 |ddv_scf|^2 =  9.214E-14

      iter #   6 total cpu time :  5732.1 secs   av.it.:   9.6
      thresh= 3.035E-08 alpha_mix =  0.700 |ddv_scf|^2 =  2.655E-15

      iter #   7 total cpu time :  5760.9 secs   av.it.:   9.3
      thresh= 5.153E-09 alpha_mix =  0.700 |ddv_scf|^2 =  1.080E-16

      iter #   8 total cpu time :  5791.5 secs   av.it.:   9.3
      thresh= 1.039E-09 alpha_mix =  0.700 |ddv_scf|^2 =  1.074E-18

     End of self-consistent calculation

     Convergence has been achieved 
 
     Number of q in the star =   24
     List of q in the star:
          1   0.000000000  -0.108253200   0.541265900
          2  -0.000000000  -0.108253200  -0.541265900
          3   0.000000000   0.108253200  -0.541265900
          4  -0.108253200   0.000000000  -0.541265900
          5   0.108253200   0.000000000  -0.541265900
          6  -0.108253200  -0.000000000   0.541265900
          7   0.108253200   0.000000000   0.541265900
          8   0.541265900   0.108253200   0.000000000
          9  -0.541265900   0.108253200  -0.000000000
         10   0.541265900  -0.108253200  -0.000000000
         11  -0.541265900  -0.108253200   0.000000000
         12  -0.000000000   0.541265900  -0.108253200
         13  -0.000000000  -0.541265900   0.108253200
         14   0.000000000   0.541265900   0.108253200
         15   0.000000000  -0.541265900  -0.108253200
         16  -0.108253200   0.541265900   0.000000000
         17   0.108253200   0.541265900  -0.000000000
         18  -0.108253200  -0.541265900  -0.000000000
         19   0.108253200  -0.541265900   0.000000000
         20   0.541265900   0.000000000  -0.108253200
         21   0.541265900  -0.000000000   0.108253200
         22  -0.541265900  -0.000000000  -0.108253200
         23  -0.541265900   0.000000000   0.108253200
         24   0.000000000   0.108253200   0.541265900

     Diagonalizing the dynamical matrix

     q = (    0.000000000  -0.108253200   0.541265900 ) 

 **************************************************************************
     freq (    1) =       7.489098 [THz] =     249.809429 [cm-1]
     freq (    2) =       8.292687 [THz] =     276.614250 [cm-1]
     freq (    3) =      13.245792 [THz] =     441.832058 [cm-1]
     freq (    4) =      26.020017 [THz] =     867.934328 [cm-1]
     freq (    5) =      27.953970 [THz] =     932.444074 [cm-1]
     freq (    6) =      29.016196 [THz] =     967.876125 [cm-1]
     freq (    7) =      31.547666 [THz] =    1052.316862 [cm-1]
     freq (    8) =      35.679907 [THz] =    1190.153601 [cm-1]
     freq (    9) =      35.697225 [THz] =    1190.731256 [cm-1]
     freq (   10) =      40.156869 [THz] =    1339.488970 [cm-1]
     freq (   11) =      40.437367 [THz] =    1348.845369 [cm-1]
     freq (   12) =      42.448616 [THz] =    1415.933404 [cm-1]
     freq (   13) =      42.748208 [THz] =    1425.926746 [cm-1]
     freq (   14) =      42.766210 [THz] =    1426.527216 [cm-1]
     freq (   15) =      43.684238 [THz] =    1457.149348 [cm-1]
     freq (   16) =      44.457275 [THz] =    1482.935072 [cm-1]
     freq (   17) =      47.777068 [THz] =    1593.671459 [cm-1]
     freq (   18) =      48.266061 [THz] =    1609.982498 [cm-1]
     freq (   19) =      50.157444 [THz] =    1673.072237 [cm-1]
     freq (   20) =      56.111075 [THz] =    1871.663989 [cm-1]
     freq (   21) =      60.240397 [THz] =    2009.403358 [cm-1]
 **************************************************************************

     Mode symmetry, C_s (m)     point group:

     freq (   1-   1) =        249.8  [cm-1]   --> A''                
     freq (   2-   2) =        276.6  [cm-1]   --> A'                 
     freq (   3-   3) =        441.8  [cm-1]   --> A'                 
     freq (   4-   4) =        867.9  [cm-1]   --> A'                 
     freq (   5-   5) =        932.4  [cm-1]   --> A''                
     freq (   6-   6) =        967.9  [cm-1]   --> A''                
     freq (   7-   7) =       1052.3  [cm-1]   --> A'                 
     freq (   8-   8) =       1190.2  [cm-1]   --> A'                 
     freq (   9-   9) =       1190.7  [cm-1]   --> A''                
     freq (  10-  10) =       1339.5  [cm-1]   --> A'                 
     freq (  11-  11) =       1348.8  [cm-1]   --> A''                
     freq (  12-  12) =       1415.9  [cm-1]   --> A'                 
     freq (  13-  13) =       1425.9  [cm-1]   --> A''                
     freq (  14-  14) =       1426.5  [cm-1]   --> A'                 
     freq (  15-  15) =       1457.1  [cm-1]   --> A'                 
     freq (  16-  16) =       1482.9  [cm-1]   --> A''                
     freq (  17-  17) =       1593.7  [cm-1]   --> A'                 
     freq (  18-  18) =       1610.0  [cm-1]   --> A''                
     freq (  19-  19) =       1673.1  [cm-1]   --> A'                 
     freq (  20-  20) =       1871.7  [cm-1]   --> A'                 
     freq (  21-  21) =       2009.4  [cm-1]   --> A'                 
     electron-phonon interaction  ...

     Gaussian Broadening:   0.005 Ry, ngauss=   0
     DOS =  1.900675 states/spin/Ry/Unit Cell at Ef= 17.155196 eV
     lambda(    1)=  0.1849   gamma=   18.82 GHz
     lambda(    2)=  0.2708   gamma=   33.80 GHz
     lambda(    3)=  0.1029   gamma=   32.78 GHz
     lambda(    4)=  0.3437   gamma=  422.33 GHz
     lambda(    5)=  0.2884   gamma=  409.01 GHz
     lambda(    6)=  0.0830   gamma=  126.88 GHz
     lambda(    7)=  0.1648   gamma=  297.65 GHz
     lambda(    8)=  0.1600   gamma=  369.59 GHz
     lambda(    9)=  0.1218   gamma=  281.65 GHz
     lambda(   10)=  0.0152   gamma=   44.46 GHz
     lambda(   11)=  0.0034   gamma=    9.99 GHz
     lambda(   12)=  0.0934   gamma=  305.34 GHz
     lambda(   13)=  0.0037   gamma=   12.26 GHz
     lambda(   14)=  0.0054   gamma=   17.77 GHz
     lambda(   15)=  0.0116   gamma=   40.16 GHz
     lambda(   16)=  0.0016   gamma=    5.87 GHz
     lambda(   17)=  0.0101   gamma=   41.66 GHz
     lambda(   18)=  0.0082   gamma=   34.52 GHz
     lambda(   19)=  0.0373   gamma=  170.19 GHz
     lambda(   20)=  0.0045   gamma=   25.53 GHz
     lambda(   21)=  0.0745   gamma=  490.59 GHz
     Gaussian Broadening:   0.010 Ry, ngauss=   0
     DOS =  2.130656 states/spin/Ry/Unit Cell at Ef= 17.149400 eV
     lambda(    1)=  0.1882   gamma=   21.48 GHz
     lambda(    2)=  0.2063   gamma=   28.87 GHz
     lambda(    3)=  0.0627   gamma=   22.39 GHz
     lambda(    4)=  0.3143   gamma=  432.95 GHz
     lambda(    5)=  0.2385   gamma=  379.27 GHz
     lambda(    6)=  0.1436   gamma=  245.93 GHz
     lambda(    7)=  0.1422   gamma=  287.99 GHz
     lambda(    8)=  0.1313   gamma=  340.04 GHz
     lambda(    9)=  0.1157   gamma=  299.89 GHz
     lambda(   10)=  0.0097   gamma=   31.77 GHz
     lambda(   11)=  0.0051   gamma=   17.13 GHz
     lambda(   12)=  0.0607   gamma=  222.69 GHz
     lambda(   13)=  0.0042   gamma=   15.73 GHz
     lambda(   14)=  0.0040   gamma=   15.05 GHz
     lambda(   15)=  0.0088   gamma=   34.19 GHz
     lambda(   16)=  0.0026   gamma=   10.65 GHz
     lambda(   17)=  0.0082   gamma=   38.25 GHz
     lambda(   18)=  0.0063   gamma=   30.00 GHz
     lambda(   19)=  0.0297   gamma=  152.19 GHz
     lambda(   20)=  0.0047   gamma=   30.09 GHz
     lambda(   21)=  0.0466   gamma=  344.42 GHz
     Gaussian Broadening:   0.015 Ry, ngauss=   0
     DOS =  2.235086 states/spin/Ry/Unit Cell at Ef= 17.146382 eV
     lambda(    1)=  0.2099   gamma=   25.12 GHz
     lambda(    2)=  0.1902   gamma=   27.91 GHz
     lambda(    3)=  0.0534   gamma=   19.99 GHz
     lambda(    4)=  0.3245   gamma=  468.94 GHz
     lambda(    5)=  0.2602   gamma=  433.98 GHz
     lambda(    6)=  0.1944   gamma=  349.28 GHz
     lambda(    7)=  0.1413   gamma=  300.24 GHz
     lambda(    8)=  0.1272   gamma=  345.72 GHz
     lambda(    9)=  0.1258   gamma=  342.17 GHz
     lambda(   10)=  0.0089   gamma=   30.70 GHz
     lambda(   11)=  0.0067   gamma=   23.34 GHz
     lambda(   12)=  0.0539   gamma=  207.41 GHz
     lambda(   13)=  0.0049   gamma=   19.11 GHz
     lambda(   14)=  0.0042   gamma=   16.54 GHz
     lambda(   15)=  0.0081   gamma=   32.96 GHz
     lambda(   16)=  0.0035   gamma=   14.66 GHz
     lambda(   17)=  0.0076   gamma=   36.80 GHz
     lambda(   18)=  0.0062   gamma=   31.05 GHz
     lambda(   19)=  0.0306   gamma=  164.25 GHz
     lambda(   20)=  0.0054   gamma=   36.15 GHz
     lambda(   21)=  0.0382   gamma=  296.25 GHz
     Gaussian Broadening:   0.020 Ry, ngauss=   0
     DOS =  2.290454 states/spin/Ry/Unit Cell at Ef= 17.145317 eV
     lambda(    1)=  0.2254   gamma=   27.65 GHz
     lambda(    2)=  0.1961   gamma=   29.49 GHz
     lambda(    3)=  0.0523   gamma=   20.08 GHz
     lambda(    4)=  0.3428   gamma=  507.67 GHz
     lambda(    5)=  0.2919   gamma=  498.86 GHz
     lambda(    6)=  0.2232   gamma=  411.02 GHz
     lambda(    7)=  0.1507   gamma=  328.09 GHz
     lambda(    8)=  0.1349   gamma=  375.76 GHz
     lambda(    9)=  0.1351   gamma=  376.56 GHz
     lambda(   10)=  0.0092   gamma=   32.51 GHz
     lambda(   11)=  0.0077   gamma=   27.45 GHz
     lambda(   12)=  0.0536   gamma=  211.34 GHz
     lambda(   13)=  0.0056   gamma=   22.33 GHz
     lambda(   14)=  0.0048   gamma=   19.13 GHz
     lambda(   15)=  0.0080   gamma=   33.47 GHz
     lambda(   16)=  0.0040   gamma=   17.14 GHz
     lambda(   17)=  0.0076   gamma=   37.91 GHz
     lambda(   18)=  0.0067   gamma=   34.27 GHz
     lambda(   19)=  0.0333   gamma=  183.02 GHz
     lambda(   20)=  0.0063   gamma=   43.16 GHz
     lambda(   21)=  0.0385   gamma=  305.38 GHz
     Gaussian Broadening:   0.025 Ry, ngauss=   0
     DOS =  2.332190 states/spin/Ry/Unit Cell at Ef= 17.144758 eV
     lambda(    1)=  0.2331   gamma=   29.12 GHz
     lambda(    2)=  0.2032   gamma=   31.12 GHz
     lambda(    3)=  0.0524   gamma=   20.46 GHz
     lambda(    4)=  0.3551   gamma=  535.36 GHz
     lambda(    5)=  0.3134   gamma=  545.48 GHz
     lambda(    6)=  0.2382   gamma=  446.67 GHz
     lambda(    7)=  0.1593   gamma=  353.12 GHz
     lambda(    8)=  0.1413   gamma=  400.72 GHz
     lambda(    9)=  0.1397   gamma=  396.45 GHz
     lambda(   10)=  0.0095   gamma=   34.24 GHz
     lambda(   11)=  0.0082   gamma=   30.02 GHz
     lambda(   12)=  0.0542   gamma=  217.70 GHz
     lambda(   13)=  0.0062   gamma=   25.12 GHz
     lambda(   14)=  0.0053   gamma=   21.53 GHz
     lambda(   15)=  0.0080   gamma=   33.88 GHz
     lambda(   16)=  0.0042   gamma=   18.58 GHz
     lambda(   17)=  0.0078   gamma=   39.52 GHz
     lambda(   18)=  0.0072   gamma=   37.13 GHz
     lambda(   19)=  0.0352   gamma=  197.44 GHz
     lambda(   20)=  0.0069   gamma=   48.72 GHz
     lambda(   21)=  0.0393   gamma=  317.68 GHz
     Gaussian Broadening:   0.030 Ry, ngauss=   0
     DOS =  2.360595 states/spin/Ry/Unit Cell at Ef= 17.144134 eV
     lambda(    1)=  0.2361   gamma=   29.85 GHz
     lambda(    2)=  0.2075   gamma=   32.17 GHz
     lambda(    3)=  0.0523   gamma=   20.70 GHz
     lambda(    4)=  0.3636   gamma=  554.92 GHz
     lambda(    5)=  0.3254   gamma=  573.27 GHz
     lambda(    6)=  0.2455   gamma=  465.91 GHz
     lambda(    7)=  0.1663   gamma=  373.16 GHz
     lambda(    8)=  0.1446   gamma=  414.95 GHz
     lambda(    9)=  0.1411   gamma=  405.32 GHz
     lambda(   10)=  0.0097   gamma=   35.33 GHz
     lambda(   11)=  0.0086   gamma=   31.54 GHz
     lambda(   12)=  0.0546   gamma=  221.87 GHz
     lambda(   13)=  0.0067   gamma=   27.56 GHz
     lambda(   14)=  0.0058   gamma=   23.79 GHz
     lambda(   15)=  0.0079   gamma=   34.03 GHz
     lambda(   16)=  0.0044   gamma=   19.43 GHz
     lambda(   17)=  0.0080   gamma=   40.93 GHz
     lambda(   18)=  0.0075   gamma=   39.16 GHz
     lambda(   19)=  0.0363   gamma=  206.07 GHz
     lambda(   20)=  0.0074   gamma=   52.30 GHz
     lambda(   21)=  0.0396   gamma=  324.17 GHz
     Gaussian Broadening:   0.035 Ry, ngauss=   0
     DOS =  2.381114 states/spin/Ry/Unit Cell at Ef= 17.143351 eV
     lambda(    1)=  0.2366   gamma=   30.17 GHz
     lambda(    2)=  0.2100   gamma=   32.84 GHz
     lambda(    3)=  0.0522   gamma=   20.84 GHz
     lambda(    4)=  0.3709   gamma=  571.01 GHz
     lambda(    5)=  0.3321   gamma=  590.02 GHz
     lambda(    6)=  0.2488   gamma=  476.27 GHz
     lambda(    7)=  0.1727   gamma=  390.83 GHz
     lambda(    8)=  0.1459   gamma=  422.43 GHz
     lambda(    9)=  0.1409   gamma=  408.35 GHz
     lambda(   10)=  0.0098   gamma=   35.99 GHz
     lambda(   11)=  0.0087   gamma=   32.42 GHz
     lambda(   12)=  0.0547   gamma=  223.92 GHz
     lambda(   13)=  0.0072   gamma=   29.81 GHz
     lambda(   14)=  0.0063   gamma=   26.05 GHz
     lambda(   15)=  0.0079   gamma=   34.10 GHz
     lambda(   16)=  0.0044   gamma=   19.99 GHz
     lambda(   17)=  0.0081   gamma=   42.25 GHz
     lambda(   18)=  0.0077   gamma=   40.67 GHz
     lambda(   19)=  0.0369   gamma=  211.07 GHz
     lambda(   20)=  0.0076   gamma=   54.60 GHz
     lambda(   21)=  0.0397   gamma=  327.40 GHz
     Gaussian Broadening:   0.040 Ry, ngauss=   0
     DOS =  2.398900 states/spin/Ry/Unit Cell at Ef= 17.142416 eV
     lambda(    1)=  0.2361   gamma=   30.33 GHz
     lambda(    2)=  0.2117   gamma=   33.35 GHz
     lambda(    3)=  0.0521   gamma=   20.95 GHz
     lambda(    4)=  0.3777   gamma=  585.82 GHz
     lambda(    5)=  0.3362   gamma=  601.87 GHz
     lambda(    6)=  0.2503   gamma=  482.70 GHz
     lambda(    7)=  0.1792   gamma=  408.48 GHz
     lambda(    8)=  0.1465   gamma=  427.34 GHz
     lambda(    9)=  0.1402   gamma=  409.39 GHz
     lambda(   10)=  0.0099   gamma=   36.47 GHz
     lambda(   11)=  0.0088   gamma=   33.02 GHz
     lambda(   12)=  0.0545   gamma=  224.89 GHz
     lambda(   13)=  0.0076   gamma=   31.96 GHz
     lambda(   14)=  0.0068   gamma=   28.30 GHz
     lambda(   15)=  0.0078   gamma=   34.23 GHz
     lambda(   16)=  0.0045   gamma=   20.45 GHz
     lambda(   17)=  0.0084   gamma=   43.72 GHz
     lambda(   18)=  0.0079   gamma=   41.99 GHz
     lambda(   19)=  0.0372   gamma=  214.54 GHz
     lambda(   20)=  0.0078   gamma=   56.33 GHz
     lambda(   21)=  0.0396   gamma=  329.35 GHz
     Gaussian Broadening:   0.045 Ry, ngauss=   0
     DOS =  2.416850 states/spin/Ry/Unit Cell at Ef= 17.141341 eV
     lambda(    1)=  0.2354   gamma=   30.48 GHz
     lambda(    2)=  0.2131   gamma=   33.82 GHz
     lambda(    3)=  0.0521   gamma=   21.08 GHz
     lambda(    4)=  0.3839   gamma=  599.92 GHz
     lambda(    5)=  0.3393   gamma=  611.97 GHz
     lambda(    6)=  0.2511   gamma=  487.90 GHz
     lambda(    7)=  0.1860   gamma=  427.15 GHz
     lambda(    8)=  0.1471   gamma=  432.14 GHz
     lambda(    9)=  0.1396   gamma=  410.58 GHz
     lambda(   10)=  0.0099   gamma=   36.94 GHz
     lambda(   11)=  0.0089   gamma=   33.56 GHz
     lambda(   12)=  0.0542   gamma=  225.52 GHz
     lambda(   13)=  0.0081   gamma=   34.10 GHz
     lambda(   14)=  0.0072   gamma=   30.48 GHz
     lambda(   15)=  0.0078   gamma=   34.55 GHz
     lambda(   16)=  0.0046   gamma=   20.90 GHz
     lambda(   17)=  0.0087   gamma=   45.58 GHz
     lambda(   18)=  0.0081   gamma=   43.37 GHz
     lambda(   19)=  0.0375   gamma=  217.71 GHz
     lambda(   20)=  0.0080   gamma=   57.92 GHz
     lambda(   21)=  0.0395   gamma=  330.95 GHz
     Gaussian Broadening:   0.050 Ry, ngauss=   0
     DOS =  2.436152 states/spin/Ry/Unit Cell at Ef= 17.140123 eV
     lambda(    1)=  0.2351   gamma=   30.68 GHz
     lambda(    2)=  0.2145   gamma=   34.32 GHz
     lambda(    3)=  0.0520   gamma=   21.23 GHz
     lambda(    4)=  0.3894   gamma=  613.33 GHz
     lambda(    5)=  0.3419   gamma=  621.48 GHz
     lambda(    6)=  0.2517   gamma=  493.03 GHz
     lambda(    7)=  0.1930   gamma=  446.94 GHz
     lambda(    8)=  0.1479   gamma=  437.90 GHz
     lambda(    9)=  0.1392   gamma=  412.80 GHz
     lambda(   10)=  0.0100   gamma=   37.48 GHz
     lambda(   11)=  0.0090   gamma=   34.15 GHz
     lambda(   12)=  0.0540   gamma=  226.21 GHz
     lambda(   13)=  0.0085   gamma=   36.33 GHz
     lambda(   14)=  0.0077   gamma=   32.61 GHz
     lambda(   15)=  0.0079   gamma=   35.13 GHz
     lambda(   16)=  0.0046   gamma=   21.38 GHz
     lambda(   17)=  0.0090   gamma=   47.95 GHz
     lambda(   18)=  0.0083   gamma=   44.99 GHz
     lambda(   19)=  0.0378   gamma=  221.15 GHz
     lambda(   20)=  0.0081   gamma=   59.53 GHz
     lambda(   21)=  0.0394   gamma=  332.60 GHz
 
 
     Number of q in the star =   24
     List of q in the star:
          1   0.000000000  -0.108253200   0.541265900
          2  -0.000000000  -0.108253200  -0.541265900
          3   0.000000000   0.108253200  -0.541265900
          4  -0.108253200   0.000000000  -0.541265900
          5   0.108253200   0.000000000  -0.541265900
          6  -0.108253200  -0.000000000   0.541265900
          7   0.108253200   0.000000000   0.541265900
          8   0.541265900   0.108253200   0.000000000
          9  -0.541265900   0.108253200  -0.000000000
         10   0.541265900  -0.108253200  -0.000000000
         11  -0.541265900  -0.108253200   0.000000000
         12  -0.000000000   0.541265900  -0.108253200
         13  -0.000000000  -0.541265900   0.108253200
         14   0.000000000   0.541265900   0.108253200
         15   0.000000000  -0.541265900  -0.108253200
         16  -0.108253200   0.541265900   0.000000000
         17   0.108253200   0.541265900  -0.000000000
         18  -0.108253200  -0.541265900  -0.000000000
         19   0.108253200  -0.541265900   0.000000000
         20   0.541265900   0.000000000  -0.108253200
         21   0.541265900  -0.000000000   0.108253200
         22  -0.541265900  -0.000000000  -0.108253200
         23  -0.541265900   0.000000000   0.108253200
         24   0.000000000   0.108253200   0.541265900
 
     init_run     :      0.07s CPU      0.19s WALL (       1 calls)
     electrons    :     27.47s CPU     30.10s WALL (       1 calls)

     Called by init_run:
     wfcinit      :      0.00s CPU      0.06s WALL (       1 calls)
     potinit      :      0.01s CPU      0.06s WALL (       1 calls)
     hinit0       :      0.03s CPU      0.04s WALL (       1 calls)

     Called by electrons:
     c_bands      :     27.43s CPU     30.06s WALL (       1 calls)
     v_of_rho     :      0.01s CPU      0.04s WALL (       2 calls)
     newd         :      0.00s CPU      0.01s WALL (       2 calls)

     Called by c_bands:
     init_us_2    :      3.68s CPU      4.10s WALL (  139264 calls)
     cegterg      :     16.80s CPU     18.08s WALL (    1100 calls)

     Called by *egterg:
     cdiaghg      :      5.89s CPU      6.32s WALL (   17272 calls)
     h_psi        :   2119.41s CPU   2561.69s WALL ( 1545401 calls)
     s_psi        :     31.41s CPU     35.58s WALL ( 3185582 calls)
     g_psi        :      0.05s CPU      0.05s WALL (   16184 calls)

     Called by h_psi:
     h_psi:calbec :     28.20s CPU     31.65s WALL ( 1545401 calls)
     vloc_psi     :   2063.07s CPU   2498.31s WALL ( 1545401 calls)
     add_vuspsi   :     14.86s CPU     16.81s WALL ( 1545401 calls)

     General routines
     calbec       :    103.61s CPU    111.67s WALL ( 3363470 calls)
     fft          :      0.71s CPU      1.18s WALL (    4039 calls)
     ffts         :      0.76s CPU      0.87s WALL (   12325 calls)
     fftw         :   2874.57s CPU   3503.32s WALL (21274752 calls)
     interpolate  :      0.25s CPU      0.30s WALL (     439 calls)
     davcio       :     19.37s CPU    515.18s WALL (  606894 calls)
 
     Parallel routines
 
     PHONON       :      1h15m CPU      1h37m WALL

     INITIALIZATION: 
     phq_setup    :      0.02s CPU      0.05s WALL (       1 calls)
     phq_init     :     22.63s CPU     25.15s WALL (       1 calls)
 
     phq_init     :     22.63s CPU     25.15s WALL (       1 calls)
     set_drhoc    :      0.04s CPU      0.04s WALL (       3 calls)
     init_vloc    :      0.00s CPU      0.01s WALL (       2 calls)
     init_us_1    :      0.05s CPU      0.10s WALL (       2 calls)
     newd         :      0.00s CPU      0.01s WALL (       2 calls)
     dvanqq       :      0.17s CPU      0.17s WALL (       1 calls)
     drho         :     14.18s CPU     15.82s WALL (       1 calls)
 
     DYNAMICAL MATRIX:
     dynmat0      :      3.79s CPU      4.10s WALL (       1 calls)
     phqscf       :   4471.42s CPU   5745.02s WALL (       1 calls)
     dynmatrix    :      0.04s CPU      0.09s WALL (       1 calls)
 
     phqscf       :   4471.42s CPU   5745.02s WALL (       1 calls)
     solve_linter :   4425.48s CPU   5690.72s WALL (      21 calls)
     drhodv       :     45.90s CPU     51.23s WALL (      21 calls)
 
     dynmat0      :      3.79s CPU      4.10s WALL (       1 calls)
     dynmat_us    :      3.75s CPU      4.03s WALL (       1 calls)
     d2ionq       :      0.01s CPU      0.01s WALL (       1 calls)
     dynmatcc     :      0.03s CPU      0.03s WALL (       1 calls)
 
     dynmat_us    :      3.75s CPU      4.03s WALL (       1 calls)
     addusdynmat  :      0.00s CPU      0.00s WALL (       1 calls)
 
     phqscf       :   4471.42s CPU   5745.02s WALL (       1 calls)
     solve_linter :   4425.48s CPU   5690.72s WALL (      21 calls)
 
     solve_linter :   4425.48s CPU   5690.72s WALL (      21 calls)
     dvqpsi_us    :     16.95s CPU     18.42s WALL (   11424 calls)
     ortho        :     41.78s CPU     43.93s WALL (  113152 calls)
     cgsolve      :   2225.36s CPU   2681.78s WALL (  113152 calls)
     incdrhoscf   :    419.29s CPU    518.64s WALL (  113152 calls)
     addusddens   :      3.53s CPU      4.48s WALL (     229 calls)
     vpsifft      :    456.21s CPU    558.67s WALL (  113152 calls)
     dv_of_drho   :      0.53s CPU      0.56s WALL (     208 calls)
     mix_pot      :     19.16s CPU     56.81s WALL (     208 calls)
     psymdvscf    :      6.78s CPU      7.08s WALL (     208 calls)
     newdq        :      2.84s CPU      2.86s WALL (     208 calls)
     adddvscf     :      3.73s CPU      4.23s WALL (  113152 calls)
     drhodvus     :      6.61s CPU      8.70s WALL (      21 calls)
 
     dvqpsi_us    :     16.95s CPU     18.42s WALL (   11424 calls)
     dvqpsi_us_on :      6.42s CPU      6.83s WALL (   11424 calls)
 
     cgsolve      :   2225.36s CPU   2681.78s WALL (  113152 calls)
     ch_psi       :   2205.71s CPU   2659.38s WALL ( 1527029 calls)
 
     ch_psi       :   2205.71s CPU   2659.38s WALL ( 1527029 calls)
     h_psi        :   2119.41s CPU   2561.69s WALL ( 1545401 calls)
     last         :     63.59s CPU     71.68s WALL ( 1527029 calls)
 
     h_psi        :   2119.41s CPU   2561.69s WALL ( 1545401 calls)
     add_vuspsi   :     14.86s CPU     16.81s WALL ( 1545401 calls)
 
     incdrhoscf   :    419.29s CPU    518.64s WALL (  113152 calls)
     addusdbec    :      3.61s CPU      4.02s WALL (  124576 calls)
 
     drhodvus     :      6.61s CPU      8.70s WALL (      21 calls)
 
      Electron-phonon coupling
     elphel       :    134.28s CPU    181.13s WALL (      21 calls)
     elphsum      :     31.59s CPU     32.28s WALL (       1 calls)
 
      General routines
     calbec       :    103.61s CPU    111.67s WALL ( 3363470 calls)
     fft          :      0.71s CPU      1.18s WALL (    4039 calls)
     ffts         :      0.76s CPU      0.87s WALL (   12325 calls)
     fftw         :   2874.57s CPU   3503.32s WALL (21274752 calls)
     davcio       :     19.37s CPU    515.18s WALL (  606894 calls)
     write_rec    :      0.17s CPU     30.34s WALL (     229 calls)
 
 
     PHONON       :      1h15m CPU      1h37m WALL

 
   This run was terminated on:  15:42:39  21Jul2022            

=------------------------------------------------------------------------------=
   JOB DONE.
=------------------------------------------------------------------------------=
