
     Program PHONON v.6.8 starts on 21Jul2022 at 14: 5:23 

     This program is part of the open-source Quantum ESPRESSO suite
     for quantum simulation of materials; please cite
         "P. Giannozzi et al., J. Phys.:Condens. Matter 21 395502 (2009);
         "P. Giannozzi et al., J. Phys.:Condens. Matter 29 465901 (2017);
         "P. Giannozzi et al., J. Chem. Phys. 152 154105 (2020);
          URL http://www.quantum-espresso.org", 
     in publications or presentations arising from this work. More details at
     http://www.quantum-espresso.org/quote

     Parallel version (MPI), running on    48 processors

     MPI processes distributed on     1 nodes
     K-points division:     npool     =       4
     R & G space division:  proc/nbgrp/npool/nimage =      12
     188809 MiB available memory on the printing compute node when the environment starts
 
     Waiting for input...
     Reading input from standard input

     Reading xml data from directory:

     ./tmp/Ca1H6.save/

     IMPORTANT: XC functional enforced from input :
     Exchange-correlation= PBE
                           (   1   4   3   4   0   0   0)
     Any further DFT definition will be discarded
     Please, verify this is what you really want

 
     Parallelization info
     --------------------
     sticks:   dense  smooth     PW     G-vecs:    dense   smooth      PW
     Min         139      46     17                 3602      698     155
     Max         140      47     18                 3604      701     157
     Sum        1669     557    205                43227     8391    1865
 
     Using Slab Decomposition
 
     Reading collected, re-writing distributed wavefunctions

     Saving dvscf to file. Distribute only q points, not irreducible represetations.

     Calculation of q =    0.1082532  -0.1082532   0.4330127

     Subspace diagonalization in iterative solution of the eigenvalue problem:
     a serial algorithm will be used

 
     Parallelization info
     --------------------
     sticks:   dense  smooth     PW     G-vecs:    dense   smooth      PW
     Min         139      46     17                 3602      698     155
     Max         140      47     18                 3604      701     157
     Sum        1669     557    205                43227     8391    1865
 
     Using Slab Decomposition
 

     Title: 
     Electron-phonon coefficients for Ca1H6                                     


     bravais-lattice index     =            0
     lattice parameter (alat)  =       5.5613  a.u.
     unit-cell volume          =     132.4087 (a.u.)^3
     number of atoms/cell      =            7
     number of atomic types    =            2
     number of electrons       =        16.00
     number of Kohn-Sham states=           12
     kinetic-energy cutoff     =      60.0000  Ry
     charge density cutoff     =     720.0000  Ry
     Exchange-correlation= PBE
                           (   1   4   3   4   0   0   0)

     celldm(1)=   5.561340  celldm(2)=   0.000000  celldm(3)=   0.000000
     celldm(4)=   0.000000  celldm(5)=   0.000000  celldm(6)=   0.000000

     crystal axes: (cart. coord. in units of alat)
               a(1) = (  -0.577350   0.577350   0.577350 )  
               a(2) = (   0.577350  -0.577350   0.577350 )  
               a(3) = (   0.577350   0.577350  -0.577350 )  

     reciprocal axes: (cart. coord. in units 2 pi/alat)
               b(1) = ( -0.000000  0.866025  0.866025 )  
               b(2) = (  0.866025 -0.000000  0.866025 )  
               b(3) = (  0.866025  0.866025  0.000000 )  


     PseudoPot. # 1 for Ca read from file:
     /work/home/mayuan/code/my_script/scripts_tests/out2/200.0/pp/ca_pbe_v1.uspp.F.UPF
     MD5 check sum: 403a4c14b9e4d4dfdc3024c9a3812218
     Pseudo is Ultrasoft + core correction, Zval = 10.0
     Generated by new atomic code, or converted to UPF format
     Using radial grid of  845 points,  6 beta functions with: 
                l(1) =   0
                l(2) =   0
                l(3) =   1
                l(4) =   1
                l(5) =   2
                l(6) =   2
     Q(r) pseudized with  8 coefficients,  rinner =    1.500   1.500   1.500
                                                       1.500   1.500

     PseudoPot. # 2 for H  read from file:
     /work/home/mayuan/code/my_script/scripts_tests/out2/200.0/pp/h_pbe_v1.uspp.F.UPF
     MD5 check sum: 3408e3ff4ec8b0a4e358431e7e038a48
     Pseudo is Ultrasoft, Zval =  1.0
     Generated by new atomic code, or converted to UPF format
     Using radial grid of  615 points,  2 beta functions with: 
                l(1) =   0
                l(2) =   0
     Q(r) pseudized with  8 coefficients,  rinner =    0.700

     atomic species   valence    mass     pseudopotential
        Ca            10.00    40.07800     Ca( 1.00)
        H              1.00     1.00794     H ( 1.00)

     48 Sym. Ops., with inversion, found



   Cartesian axes

     site n.     atom                  positions (alat units)
         1           Ca  tau(   1) = (   0.0000000   0.0000000   0.0000000  )
         2           H   tau(   2) = (   0.2886751   0.0000000   0.5773503  )
         3           H   tau(   3) = (   0.2886751   0.5773503   0.0000000  )
         4           H   tau(   4) = (   0.5773503   0.2886751   0.0000000  )
         5           H   tau(   5) = (   0.0000000   0.2886751   0.5773503  )
         6           H   tau(   6) = (   0.0000000   0.5773503   0.2886751  )
         7           H   tau(   7) = (   0.5773503   0.0000000   0.2886751  )

     number of k points=  4352  Methfessel-Paxton smearing, width (Ry)=  0.0200

     Number of k-points >= 100: set verbosity='high' to print them.

     Dense  grid:    43227 G-vectors     FFT dimensions: (  48,  48,  48)

     Smooth grid:     8391 G-vectors     FFT dimensions: (  27,  27,  27)

     Estimated max dynamical RAM per process >       8.34 MB

     Estimated total dynamical RAM >     400.48 MB

     The potential is recalculated from file :
     ./tmp/_ph0/Ca1H6.save/charge-density

     Starting wfcs are   16 atomic wfcs

     Band Structure Calculation
     Davidson diagonalization with overlap

     ethr =  6.25E-11,  avg # of iterations = 15.0

     total cpu time spent up to now is       29.8 secs

     End of band structure calculation

     Number of k-points >= 100: set verbosity='high' to print the bands.

     the Fermi energy is    17.0980 ev

     Writing output data file ./tmp/_ph0/Ca1H6.save/

     Electron-phonon coefficients for Ca1H6                                     

     bravais-lattice index     =            0
     lattice parameter (alat)  =       5.5613  a.u.
     unit-cell volume          =     132.4087 (a.u.)^3
     number of atoms/cell      =            7
     number of atomic types    =            2
     kinetic-energy cut-off    =      60.0000  Ry
     charge density cut-off    =     720.0000  Ry
     convergence threshold     =      1.0E-16
     beta                      =       0.7000
     number of iterations used =            4
     Exchange-correlation= PBE
                           (   1   4   3   4   0   0   0)


     celldm(1)=    5.56134  celldm(2)=    0.00000  celldm(3)=    0.00000
     celldm(4)=    0.00000  celldm(5)=    0.00000  celldm(6)=    0.00000

     crystal axes: (cart. coord. in units of alat)
               a(1) = ( -0.5774  0.5774  0.5774 )  
               a(2) = (  0.5774 -0.5774  0.5774 )  
               a(3) = (  0.5774  0.5774 -0.5774 )  

     reciprocal axes: (cart. coord. in units 2 pi/alat)
               b(1) = ( -0.0000  0.8660  0.8660 )  
               b(2) = (  0.8660 -0.0000  0.8660 )  
               b(3) = (  0.8660  0.8660  0.0000 )  


     Atoms inside the unit cell: 

     Cartesian axes

     site n.  atom      mass           positions (alat units)
        1     Ca  40.0780   tau(    1) = (    0.00000    0.00000    0.00000  )
        2     H    1.0079   tau(    2) = (    0.28868    0.00000    0.57735  )
        3     H    1.0079   tau(    3) = (    0.28868    0.57735    0.00000  )
        4     H    1.0079   tau(    4) = (    0.57735    0.28868    0.00000  )
        5     H    1.0079   tau(    5) = (    0.00000    0.28868    0.57735  )
        6     H    1.0079   tau(    6) = (    0.00000    0.57735    0.28868  )
        7     H    1.0079   tau(    7) = (    0.57735    0.00000    0.28868  )

     Computing dynamical matrix for 
                    q = (   0.1082532  -0.1082532   0.4330127 )
 
      2 Sym.Ops. (no q -> -q+G )


     G cutoff =  564.0682  (   3604 G-vectors)     FFT grid: ( 48, 48, 48)
     G cutoff =  188.0227  (    699 G-vectors)  smooth grid: ( 27, 27, 27)

     number of k points=  4352  Methfessel-Paxton smearing, width (Ry)=  0.0200

     PseudoPot. # 1 for Ca read from file:
     /work/home/mayuan/code/my_script/scripts_tests/out2/200.0/pp/ca_pbe_v1.uspp.F.UPF
     MD5 check sum: 403a4c14b9e4d4dfdc3024c9a3812218
     Pseudo is Ultrasoft + core correction, Zval = 10.0
     Generated by new atomic code, or converted to UPF format
     Using radial grid of  845 points,  6 beta functions with: 
                l(1) =   0
                l(2) =   0
                l(3) =   1
                l(4) =   1
                l(5) =   2
                l(6) =   2
     Q(r) pseudized with  8 coefficients,  rinner =    1.500   1.500   1.500
                                                       1.500   1.500

     PseudoPot. # 2 for H  read from file:
     /work/home/mayuan/code/my_script/scripts_tests/out2/200.0/pp/h_pbe_v1.uspp.F.UPF
     MD5 check sum: 3408e3ff4ec8b0a4e358431e7e038a48
     Pseudo is Ultrasoft, Zval =  1.0
     Generated by new atomic code, or converted to UPF format
     Using radial grid of  615 points,  2 beta functions with: 
                l(1) =   0
                l(2) =   0
     Q(r) pseudized with  8 coefficients,  rinner =    0.700

     Mode symmetry, C_s (m)     point group:


     Atomic displacements:
     There are   21 irreducible representations

     Representation     1      1 modes -  To be done

     Representation     2      1 modes -  To be done

     Representation     3      1 modes -  To be done

     Representation     4      1 modes -  To be done

     Representation     5      1 modes -  To be done

     Representation     6      1 modes -  To be done

     Representation     7      1 modes -  To be done

     Representation     8      1 modes -  To be done

     Representation     9      1 modes -  To be done

     Representation    10      1 modes -  To be done

     Representation    11      1 modes -  To be done

     Representation    12      1 modes -  To be done

     Representation    13      1 modes -  To be done

     Representation    14      1 modes -  To be done

     Representation    15      1 modes -  To be done

     Representation    16      1 modes -  To be done

     Representation    17      1 modes -  To be done

     Representation    18      1 modes -  To be done

     Representation    19      1 modes -  To be done

     Representation    20      1 modes -  To be done

     Representation    21      1 modes -  To be done



     Alpha used in Ewald sum =   2.8000
     PHONON       :     49.87s CPU     57.86s WALL



     Representation #   1 mode #   1

     Self-consistent Calculation

      iter #   1 total cpu time :    69.9 secs   av.it.:   4.1
      thresh= 1.000E-02 alpha_mix =  0.700 |ddv_scf|^2 =  6.993E-06

      iter #   2 total cpu time :   103.3 secs   av.it.:   9.1
      thresh= 2.644E-04 alpha_mix =  0.700 |ddv_scf|^2 =  6.089E-05

      iter #   3 total cpu time :   135.7 secs   av.it.:   7.8
      thresh= 7.803E-04 alpha_mix =  0.700 |ddv_scf|^2 =  2.908E-09

      iter #   4 total cpu time :   168.2 secs   av.it.:   9.9
      thresh= 5.392E-06 alpha_mix =  0.700 |ddv_scf|^2 =  3.883E-10

      iter #   5 total cpu time :   201.5 secs   av.it.:   9.6
      thresh= 1.971E-06 alpha_mix =  0.700 |ddv_scf|^2 =  2.350E-11

      iter #   6 total cpu time :   234.5 secs   av.it.:   9.7
      thresh= 4.848E-07 alpha_mix =  0.700 |ddv_scf|^2 =  1.521E-12

      iter #   7 total cpu time :   267.6 secs   av.it.:   9.5
      thresh= 1.233E-07 alpha_mix =  0.700 |ddv_scf|^2 =  4.191E-14

      iter #   8 total cpu time :   301.3 secs   av.it.:   9.7
      thresh= 2.047E-08 alpha_mix =  0.700 |ddv_scf|^2 =  2.458E-13

      iter #   9 total cpu time :   335.2 secs   av.it.:   7.9
      thresh= 4.958E-08 alpha_mix =  0.700 |ddv_scf|^2 =  2.327E-15

      iter #  10 total cpu time :   370.2 secs   av.it.:   9.1
      thresh= 4.824E-09 alpha_mix =  0.700 |ddv_scf|^2 =  1.261E-15

      iter #  11 total cpu time :   404.5 secs   av.it.:   8.5
      thresh= 3.551E-09 alpha_mix =  0.700 |ddv_scf|^2 =  9.033E-17

     End of self-consistent calculation

     Convergence has been achieved 


     Representation #   2 mode #   2

     Self-consistent Calculation

      iter #   1 total cpu time :   428.5 secs   av.it.:   4.2
      thresh= 1.000E-02 alpha_mix =  0.700 |ddv_scf|^2 =  4.028E-06

      iter #   2 total cpu time :   451.9 secs   av.it.:   9.3
      thresh= 2.007E-04 alpha_mix =  0.700 |ddv_scf|^2 =  3.213E-05

      iter #   3 total cpu time :   477.6 secs   av.it.:   7.8
      thresh= 5.669E-04 alpha_mix =  0.700 |ddv_scf|^2 =  5.341E-08

      iter #   4 total cpu time :   504.2 secs   av.it.:   9.3
      thresh= 2.311E-05 alpha_mix =  0.700 |ddv_scf|^2 =  8.494E-10

      iter #   5 total cpu time :   530.4 secs   av.it.:   9.6
      thresh= 2.914E-06 alpha_mix =  0.700 |ddv_scf|^2 =  2.341E-11

      iter #   6 total cpu time :   560.8 secs   av.it.:   9.8
      thresh= 4.839E-07 alpha_mix =  0.700 |ddv_scf|^2 =  1.117E-12

      iter #   7 total cpu time :   592.1 secs   av.it.:   9.7
      thresh= 1.057E-07 alpha_mix =  0.700 |ddv_scf|^2 =  3.235E-14

      iter #   8 total cpu time :   623.8 secs   av.it.:   9.9
      thresh= 1.799E-08 alpha_mix =  0.700 |ddv_scf|^2 =  6.813E-14

      iter #   9 total cpu time :   655.6 secs   av.it.:   8.2
      thresh= 2.610E-08 alpha_mix =  0.700 |ddv_scf|^2 =  1.315E-14

      iter #  10 total cpu time :   685.4 secs   av.it.:   8.7
      thresh= 1.147E-08 alpha_mix =  0.700 |ddv_scf|^2 =  6.342E-15

      iter #  11 total cpu time :   718.2 secs   av.it.:   8.2
      thresh= 7.964E-09 alpha_mix =  0.700 |ddv_scf|^2 =  1.040E-16

      iter #  12 total cpu time :   747.2 secs   av.it.:   9.4
      thresh= 1.020E-09 alpha_mix =  0.700 |ddv_scf|^2 =  2.375E-18

     End of self-consistent calculation

     Convergence has been achieved 


     Representation #   3 mode #   3

     Self-consistent Calculation

      iter #   1 total cpu time :   767.6 secs   av.it.:   4.3
      thresh= 1.000E-02 alpha_mix =  0.700 |ddv_scf|^2 =  6.200E-06

      iter #   2 total cpu time :   792.1 secs   av.it.:   9.3
      thresh= 2.490E-04 alpha_mix =  0.700 |ddv_scf|^2 =  5.072E-05

      iter #   3 total cpu time :   813.8 secs   av.it.:   7.8
      thresh= 7.122E-04 alpha_mix =  0.700 |ddv_scf|^2 =  5.726E-08

      iter #   4 total cpu time :   840.8 secs   av.it.:   9.3
      thresh= 2.393E-05 alpha_mix =  0.700 |ddv_scf|^2 =  8.374E-10

      iter #   5 total cpu time :   866.8 secs   av.it.:   9.6
      thresh= 2.894E-06 alpha_mix =  0.700 |ddv_scf|^2 =  2.437E-11

      iter #   6 total cpu time :   893.6 secs   av.it.:   9.7
      thresh= 4.937E-07 alpha_mix =  0.700 |ddv_scf|^2 =  1.215E-12

      iter #   7 total cpu time :   922.0 secs   av.it.:   9.6
      thresh= 1.102E-07 alpha_mix =  0.700 |ddv_scf|^2 =  4.590E-14

      iter #   8 total cpu time :   953.9 secs   av.it.:   9.7
      thresh= 2.142E-08 alpha_mix =  0.700 |ddv_scf|^2 =  2.091E-13

      iter #   9 total cpu time :   984.2 secs   av.it.:   7.9
      thresh= 4.573E-08 alpha_mix =  0.700 |ddv_scf|^2 =  9.995E-15

      iter #  10 total cpu time :  1012.9 secs   av.it.:   8.8
      thresh= 9.997E-09 alpha_mix =  0.700 |ddv_scf|^2 =  8.192E-15

      iter #  11 total cpu time :  1042.5 secs   av.it.:   8.3
      thresh= 9.051E-09 alpha_mix =  0.700 |ddv_scf|^2 =  5.743E-17

     End of self-consistent calculation

     Convergence has been achieved 


     Representation #   4 mode #   4

     Self-consistent Calculation

      iter #   1 total cpu time :  1065.3 secs   av.it.:   4.2
      thresh= 1.000E-02 alpha_mix =  0.700 |ddv_scf|^2 =  5.438E-06

      iter #   2 total cpu time :  1088.2 secs   av.it.:   9.2
      thresh= 2.332E-04 alpha_mix =  0.700 |ddv_scf|^2 =  4.555E-05

      iter #   3 total cpu time :  1113.6 secs   av.it.:   7.8
      thresh= 6.749E-04 alpha_mix =  0.700 |ddv_scf|^2 =  2.159E-08

      iter #   4 total cpu time :  1139.9 secs   av.it.:   9.5
      thresh= 1.469E-05 alpha_mix =  0.700 |ddv_scf|^2 =  8.655E-10

      iter #   5 total cpu time :  1168.1 secs   av.it.:   9.6
      thresh= 2.942E-06 alpha_mix =  0.700 |ddv_scf|^2 =  3.128E-11

      iter #   6 total cpu time :  1197.7 secs   av.it.:   9.7
      thresh= 5.592E-07 alpha_mix =  0.700 |ddv_scf|^2 =  1.199E-12

      iter #   7 total cpu time :  1227.0 secs   av.it.:   9.6
      thresh= 1.095E-07 alpha_mix =  0.700 |ddv_scf|^2 =  4.183E-14

      iter #   8 total cpu time :  1256.0 secs   av.it.:   9.8
      thresh= 2.045E-08 alpha_mix =  0.700 |ddv_scf|^2 =  1.719E-13

      iter #   9 total cpu time :  1285.9 secs   av.it.:   7.9
      thresh= 4.146E-08 alpha_mix =  0.700 |ddv_scf|^2 =  7.006E-15

      iter #  10 total cpu time :  1318.9 secs   av.it.:   9.0
      thresh= 8.370E-09 alpha_mix =  0.700 |ddv_scf|^2 =  6.748E-15

      iter #  11 total cpu time :  1350.1 secs   av.it.:   8.2
      thresh= 8.215E-09 alpha_mix =  0.700 |ddv_scf|^2 =  7.684E-17

     End of self-consistent calculation

     Convergence has been achieved 


     Representation #   5 mode #   5

     Self-consistent Calculation

      iter #   1 total cpu time :  1374.6 secs   av.it.:   4.0
      thresh= 1.000E-02 alpha_mix =  0.700 |ddv_scf|^2 =  2.543E-07

      iter #   2 total cpu time :  1398.0 secs   av.it.:   9.7
      thresh= 5.042E-05 alpha_mix =  0.700 |ddv_scf|^2 =  1.094E-06

      iter #   3 total cpu time :  1423.2 secs   av.it.:   8.0
      thresh= 1.046E-04 alpha_mix =  0.700 |ddv_scf|^2 =  4.980E-08

      iter #   4 total cpu time :  1448.3 secs   av.it.:   8.7
      thresh= 2.232E-05 alpha_mix =  0.700 |ddv_scf|^2 =  4.061E-10

      iter #   5 total cpu time :  1475.9 secs   av.it.:   9.7
      thresh= 2.015E-06 alpha_mix =  0.700 |ddv_scf|^2 =  3.180E-11

      iter #   6 total cpu time :  1506.1 secs   av.it.:   9.7
      thresh= 5.639E-07 alpha_mix =  0.700 |ddv_scf|^2 =  1.394E-12

      iter #   7 total cpu time :  1533.4 secs   av.it.:   9.6
      thresh= 1.181E-07 alpha_mix =  0.700 |ddv_scf|^2 =  3.011E-14

      iter #   8 total cpu time :  1561.5 secs   av.it.:   9.9
      thresh= 1.735E-08 alpha_mix =  0.700 |ddv_scf|^2 =  1.006E-14

      iter #   9 total cpu time :  1590.0 secs   av.it.:   9.3
      thresh= 1.003E-08 alpha_mix =  0.700 |ddv_scf|^2 =  1.967E-14

      iter #  10 total cpu time :  1618.5 secs   av.it.:   8.1
      thresh= 1.403E-08 alpha_mix =  0.700 |ddv_scf|^2 =  3.215E-16

      iter #  11 total cpu time :  1649.1 secs   av.it.:   9.3
      thresh= 1.793E-09 alpha_mix =  0.700 |ddv_scf|^2 =  9.452E-16

      iter #  12 total cpu time :  1679.2 secs   av.it.:   8.2
      thresh= 3.074E-09 alpha_mix =  0.700 |ddv_scf|^2 =  2.735E-18

     End of self-consistent calculation

     Convergence has been achieved 


     Representation #   6 mode #   6

     Self-consistent Calculation

      iter #   1 total cpu time :  1706.1 secs   av.it.:   7.1
      thresh= 1.000E-02 alpha_mix =  0.700 |ddv_scf|^2 =  7.267E-04

      iter #   2 total cpu time :  1727.0 secs   av.it.:   9.2
      thresh= 2.696E-03 alpha_mix =  0.700 |ddv_scf|^2 =  6.374E-03

      iter #   3 total cpu time :  1749.9 secs   av.it.:   7.8
      thresh= 7.984E-03 alpha_mix =  0.700 |ddv_scf|^2 =  2.014E-06

      iter #   4 total cpu time :  1776.7 secs   av.it.:   9.5
      thresh= 1.419E-04 alpha_mix =  0.700 |ddv_scf|^2 =  4.112E-08

      iter #   5 total cpu time :  1803.0 secs   av.it.:   9.5
      thresh= 2.028E-05 alpha_mix =  0.700 |ddv_scf|^2 =  2.073E-09

      iter #   6 total cpu time :  1830.1 secs   av.it.:   9.1
      thresh= 4.553E-06 alpha_mix =  0.700 |ddv_scf|^2 =  8.545E-11

      iter #   7 total cpu time :  1856.6 secs   av.it.:   9.2
      thresh= 9.244E-07 alpha_mix =  0.700 |ddv_scf|^2 =  1.170E-12

      iter #   8 total cpu time :  1883.4 secs   av.it.:   9.7
      thresh= 1.082E-07 alpha_mix =  0.700 |ddv_scf|^2 =  2.385E-13

      iter #   9 total cpu time :  1911.8 secs   av.it.:   9.1
      thresh= 4.883E-08 alpha_mix =  0.700 |ddv_scf|^2 =  4.316E-14

      iter #  10 total cpu time :  1940.3 secs   av.it.:   8.7
      thresh= 2.078E-08 alpha_mix =  0.700 |ddv_scf|^2 =  2.616E-14

      iter #  11 total cpu time :  1969.2 secs   av.it.:   8.3
      thresh= 1.617E-08 alpha_mix =  0.700 |ddv_scf|^2 =  1.060E-15

      iter #  12 total cpu time :  1998.3 secs   av.it.:   9.0
      thresh= 3.256E-09 alpha_mix =  0.700 |ddv_scf|^2 =  3.659E-17

     End of self-consistent calculation

     Convergence has been achieved 


     Representation #   7 mode #   7

     Self-consistent Calculation

      iter #   1 total cpu time :  2021.1 secs   av.it.:   4.2
      thresh= 1.000E-02 alpha_mix =  0.700 |ddv_scf|^2 =  5.987E-06

      iter #   2 total cpu time :  2044.0 secs   av.it.:   9.1
      thresh= 2.447E-04 alpha_mix =  0.700 |ddv_scf|^2 =  5.045E-05

      iter #   3 total cpu time :  2068.5 secs   av.it.:   7.8
      thresh= 7.103E-04 alpha_mix =  0.700 |ddv_scf|^2 =  2.203E-08

      iter #   4 total cpu time :  2095.1 secs   av.it.:   9.4
      thresh= 1.484E-05 alpha_mix =  0.700 |ddv_scf|^2 =  8.144E-10

      iter #   5 total cpu time :  2121.6 secs   av.it.:   9.5
      thresh= 2.854E-06 alpha_mix =  0.700 |ddv_scf|^2 =  2.749E-11

      iter #   6 total cpu time :  2151.0 secs   av.it.:   9.7
      thresh= 5.243E-07 alpha_mix =  0.700 |ddv_scf|^2 =  1.097E-12

      iter #   7 total cpu time :  2179.5 secs   av.it.:   9.6
      thresh= 1.047E-07 alpha_mix =  0.700 |ddv_scf|^2 =  1.523E-13

      iter #   8 total cpu time :  2207.3 secs   av.it.:   9.1
      thresh= 3.902E-08 alpha_mix =  0.700 |ddv_scf|^2 =  4.646E-13

      iter #   9 total cpu time :  2237.3 secs   av.it.:   8.2
      thresh= 6.816E-08 alpha_mix =  0.700 |ddv_scf|^2 =  1.833E-13

      iter #  10 total cpu time :  2266.5 secs   av.it.:   7.9
      thresh= 4.281E-08 alpha_mix =  0.700 |ddv_scf|^2 =  1.285E-15

      iter #  11 total cpu time :  2297.8 secs   av.it.:   9.2
      thresh= 3.585E-09 alpha_mix =  0.700 |ddv_scf|^2 =  4.333E-17

     End of self-consistent calculation

     Convergence has been achieved 


     Representation #   8 mode #   8

     Self-consistent Calculation

      iter #   1 total cpu time :  2322.7 secs   av.it.:   6.6
      thresh= 1.000E-02 alpha_mix =  0.700 |ddv_scf|^2 =  2.687E-05

      iter #   2 total cpu time :  2346.9 secs   av.it.:   9.8
      thresh= 5.184E-04 alpha_mix =  0.700 |ddv_scf|^2 =  1.273E-04

      iter #   3 total cpu time :  2371.1 secs   av.it.:   8.0
      thresh= 1.128E-03 alpha_mix =  0.700 |ddv_scf|^2 =  4.825E-06

      iter #   4 total cpu time :  2395.1 secs   av.it.:   8.9
      thresh= 2.197E-04 alpha_mix =  0.700 |ddv_scf|^2 =  1.495E-08

      iter #   5 total cpu time :  2420.3 secs   av.it.:   9.6
      thresh= 1.223E-05 alpha_mix =  0.700 |ddv_scf|^2 =  7.976E-10

      iter #   6 total cpu time :  2447.2 secs   av.it.:   9.6
      thresh= 2.824E-06 alpha_mix =  0.700 |ddv_scf|^2 =  1.579E-11

      iter #   7 total cpu time :  2474.1 secs   av.it.:   9.8
      thresh= 3.973E-07 alpha_mix =  0.700 |ddv_scf|^2 =  5.585E-12

      iter #   8 total cpu time :  2502.3 secs   av.it.:   9.3
      thresh= 2.363E-07 alpha_mix =  0.700 |ddv_scf|^2 =  9.752E-12

      iter #   9 total cpu time :  2531.3 secs   av.it.:   8.1
      thresh= 3.123E-07 alpha_mix =  0.700 |ddv_scf|^2 =  1.812E-13

      iter #  10 total cpu time :  2562.6 secs   av.it.:   9.2
      thresh= 4.257E-08 alpha_mix =  0.700 |ddv_scf|^2 =  4.408E-13

      iter #  11 total cpu time :  2594.0 secs   av.it.:   8.4
      thresh= 6.640E-08 alpha_mix =  0.700 |ddv_scf|^2 =  1.051E-15

      iter #  12 total cpu time :  2624.2 secs   av.it.:   9.8
      thresh= 3.242E-09 alpha_mix =  0.700 |ddv_scf|^2 =  2.570E-16

      iter #  13 total cpu time :  2653.9 secs   av.it.:   9.6
      thresh= 1.603E-09 alpha_mix =  0.700 |ddv_scf|^2 =  1.714E-17

     End of self-consistent calculation

     Convergence has been achieved 


     Representation #   9 mode #   9

     Self-consistent Calculation

      iter #   1 total cpu time :  2674.8 secs   av.it.:   4.1
      thresh= 1.000E-02 alpha_mix =  0.700 |ddv_scf|^2 =  2.069E-06

      iter #   2 total cpu time :  2696.2 secs   av.it.:   9.3
      thresh= 1.439E-04 alpha_mix =  0.700 |ddv_scf|^2 =  1.676E-05

      iter #   3 total cpu time :  2718.0 secs   av.it.:   7.8
      thresh= 4.094E-04 alpha_mix =  0.700 |ddv_scf|^2 =  2.623E-08

      iter #   4 total cpu time :  2741.3 secs   av.it.:   9.4
      thresh= 1.620E-05 alpha_mix =  0.700 |ddv_scf|^2 =  6.829E-10

      iter #   5 total cpu time :  2765.0 secs   av.it.:   9.6
      thresh= 2.613E-06 alpha_mix =  0.700 |ddv_scf|^2 =  2.874E-11

      iter #   6 total cpu time :  2791.4 secs   av.it.:   9.7
      thresh= 5.361E-07 alpha_mix =  0.700 |ddv_scf|^2 =  8.609E-13

      iter #   7 total cpu time :  2816.7 secs   av.it.:   9.7
      thresh= 9.279E-08 alpha_mix =  0.700 |ddv_scf|^2 =  2.015E-14

      iter #   8 total cpu time :  2845.1 secs   av.it.:  10.0
      thresh= 1.420E-08 alpha_mix =  0.700 |ddv_scf|^2 =  9.351E-15

      iter #   9 total cpu time :  2872.3 secs   av.it.:   9.1
      thresh= 9.670E-09 alpha_mix =  0.700 |ddv_scf|^2 =  2.023E-14

      iter #  10 total cpu time :  2900.6 secs   av.it.:   8.1
      thresh= 1.422E-08 alpha_mix =  0.700 |ddv_scf|^2 =  5.959E-17

     End of self-consistent calculation

     Convergence has been achieved 


     Representation #  10 mode #  10

     Self-consistent Calculation

      iter #   1 total cpu time :  2924.7 secs   av.it.:   4.2
      thresh= 1.000E-02 alpha_mix =  0.700 |ddv_scf|^2 =  4.943E-06

      iter #   2 total cpu time :  2949.4 secs   av.it.:   9.2
      thresh= 2.223E-04 alpha_mix =  0.700 |ddv_scf|^2 =  4.249E-05

      iter #   3 total cpu time :  2974.2 secs   av.it.:   7.8
      thresh= 6.518E-04 alpha_mix =  0.700 |ddv_scf|^2 =  3.569E-09

      iter #   4 total cpu time :  3000.3 secs   av.it.:   9.8
      thresh= 5.974E-06 alpha_mix =  0.700 |ddv_scf|^2 =  2.485E-10

      iter #   5 total cpu time :  3028.1 secs   av.it.:   9.7
      thresh= 1.576E-06 alpha_mix =  0.700 |ddv_scf|^2 =  1.496E-11

      iter #   6 total cpu time :  3054.7 secs   av.it.:   9.7
      thresh= 3.868E-07 alpha_mix =  0.700 |ddv_scf|^2 =  1.707E-12

      iter #   7 total cpu time :  3082.6 secs   av.it.:   9.6
      thresh= 1.306E-07 alpha_mix =  0.700 |ddv_scf|^2 =  3.001E-14

      iter #   8 total cpu time :  3111.3 secs   av.it.:   9.8
      thresh= 1.732E-08 alpha_mix =  0.700 |ddv_scf|^2 =  4.868E-15

      iter #   9 total cpu time :  3141.2 secs   av.it.:   9.5
      thresh= 6.977E-09 alpha_mix =  0.700 |ddv_scf|^2 =  3.586E-15

      iter #  10 total cpu time :  3170.4 secs   av.it.:   8.3
      thresh= 5.988E-09 alpha_mix =  0.700 |ddv_scf|^2 =  7.379E-16

      iter #  11 total cpu time :  3199.7 secs   av.it.:   8.7
      thresh= 2.716E-09 alpha_mix =  0.700 |ddv_scf|^2 =  5.563E-16

      iter #  12 total cpu time :  3230.6 secs   av.it.:   8.4
      thresh= 2.359E-09 alpha_mix =  0.700 |ddv_scf|^2 =  2.433E-18

     End of self-consistent calculation

     Convergence has been achieved 


     Representation #  11 mode #  11

     Self-consistent Calculation

      iter #   1 total cpu time :  3254.3 secs   av.it.:   4.3
      thresh= 1.000E-02 alpha_mix =  0.700 |ddv_scf|^2 =  7.958E-06

      iter #   2 total cpu time :  3277.9 secs   av.it.:   9.1
      thresh= 2.821E-04 alpha_mix =  0.700 |ddv_scf|^2 =  6.839E-05

      iter #   3 total cpu time :  3301.1 secs   av.it.:   7.8
      thresh= 8.270E-04 alpha_mix =  0.700 |ddv_scf|^2 =  8.294E-09

      iter #   4 total cpu time :  3327.3 secs   av.it.:   9.6
      thresh= 9.107E-06 alpha_mix =  0.700 |ddv_scf|^2 =  8.634E-10

      iter #   5 total cpu time :  3354.3 secs   av.it.:   9.5
      thresh= 2.938E-06 alpha_mix =  0.700 |ddv_scf|^2 =  1.569E-11

      iter #   6 total cpu time :  3381.8 secs   av.it.:   9.7
      thresh= 3.962E-07 alpha_mix =  0.700 |ddv_scf|^2 =  1.011E-12

      iter #   7 total cpu time :  3410.2 secs   av.it.:   9.7
      thresh= 1.005E-07 alpha_mix =  0.700 |ddv_scf|^2 =  3.208E-14

      iter #   8 total cpu time :  3441.5 secs   av.it.:   9.7
      thresh= 1.791E-08 alpha_mix =  0.700 |ddv_scf|^2 =  6.654E-14

      iter #   9 total cpu time :  3470.2 secs   av.it.:   8.3
      thresh= 2.580E-08 alpha_mix =  0.700 |ddv_scf|^2 =  3.520E-14

      iter #  10 total cpu time :  3499.2 secs   av.it.:   8.3
      thresh= 1.876E-08 alpha_mix =  0.700 |ddv_scf|^2 =  3.653E-15

      iter #  11 total cpu time :  3530.3 secs   av.it.:   8.7
      thresh= 6.044E-09 alpha_mix =  0.700 |ddv_scf|^2 =  7.006E-17

     End of self-consistent calculation

     Convergence has been achieved 


     Representation #  12 mode #  12

     Self-consistent Calculation

      iter #   1 total cpu time :  3554.7 secs   av.it.:   3.6
      thresh= 1.000E-02 alpha_mix =  0.700 |ddv_scf|^2 =  7.810E-08

      iter #   2 total cpu time :  3579.2 secs   av.it.:   9.5
      thresh= 2.795E-05 alpha_mix =  0.700 |ddv_scf|^2 =  2.227E-08

      iter #   3 total cpu time :  3607.1 secs   av.it.:   9.1
      thresh= 1.492E-05 alpha_mix =  0.700 |ddv_scf|^2 =  3.557E-10

      iter #   4 total cpu time :  3632.5 secs   av.it.:   9.5
      thresh= 1.886E-06 alpha_mix =  0.700 |ddv_scf|^2 =  2.168E-11

      iter #   5 total cpu time :  3660.2 secs   av.it.:   9.5
      thresh= 4.656E-07 alpha_mix =  0.700 |ddv_scf|^2 =  3.224E-13

      iter #   6 total cpu time :  3689.4 secs   av.it.:   9.6
      thresh= 5.678E-08 alpha_mix =  0.700 |ddv_scf|^2 =  8.015E-15

      iter #   7 total cpu time :  3717.9 secs   av.it.:   9.7
      thresh= 8.953E-09 alpha_mix =  0.700 |ddv_scf|^2 =  4.209E-16

      iter #   8 total cpu time :  3749.3 secs   av.it.:   9.6
      thresh= 2.052E-09 alpha_mix =  0.700 |ddv_scf|^2 =  1.595E-17

     End of self-consistent calculation

     Convergence has been achieved 


     Representation #  13 mode #  13

     Self-consistent Calculation

      iter #   1 total cpu time :  3774.2 secs   av.it.:   3.9
      thresh= 1.000E-02 alpha_mix =  0.700 |ddv_scf|^2 =  1.784E-07

      iter #   2 total cpu time :  3799.0 secs   av.it.:   9.5
      thresh= 4.224E-05 alpha_mix =  0.700 |ddv_scf|^2 =  5.753E-08

      iter #   3 total cpu time :  3825.5 secs   av.it.:   9.0
      thresh= 2.398E-05 alpha_mix =  0.700 |ddv_scf|^2 =  4.258E-10

      iter #   4 total cpu time :  3856.2 secs   av.it.:   9.6
      thresh= 2.063E-06 alpha_mix =  0.700 |ddv_scf|^2 =  1.595E-11

      iter #   5 total cpu time :  3886.5 secs   av.it.:   9.6
      thresh= 3.994E-07 alpha_mix =  0.700 |ddv_scf|^2 =  5.111E-13

      iter #   6 total cpu time :  3915.1 secs   av.it.:   9.5
      thresh= 7.149E-08 alpha_mix =  0.700 |ddv_scf|^2 =  1.886E-14

      iter #   7 total cpu time :  3943.1 secs   av.it.:   9.5
      thresh= 1.373E-08 alpha_mix =  0.700 |ddv_scf|^2 =  9.464E-16

      iter #   8 total cpu time :  3974.5 secs   av.it.:   9.2
      thresh= 3.076E-09 alpha_mix =  0.700 |ddv_scf|^2 =  2.453E-17

     End of self-consistent calculation

     Convergence has been achieved 


     Representation #  14 mode #  14

     Self-consistent Calculation

      iter #   1 total cpu time :  3995.6 secs   av.it.:   6.5
      thresh= 1.000E-02 alpha_mix =  0.700 |ddv_scf|^2 =  2.095E-05

      iter #   2 total cpu time :  4019.8 secs   av.it.:   9.6
      thresh= 4.577E-04 alpha_mix =  0.700 |ddv_scf|^2 =  7.420E-06

      iter #   3 total cpu time :  4043.8 secs   av.it.:   9.1
      thresh= 2.724E-04 alpha_mix =  0.700 |ddv_scf|^2 =  2.912E-08

      iter #   4 total cpu time :  4068.3 secs   av.it.:   9.5
      thresh= 1.706E-05 alpha_mix =  0.700 |ddv_scf|^2 =  7.450E-10

      iter #   5 total cpu time :  4097.3 secs   av.it.:   9.2
      thresh= 2.729E-06 alpha_mix =  0.700 |ddv_scf|^2 =  1.097E-11

      iter #   6 total cpu time :  4125.7 secs   av.it.:   9.5
      thresh= 3.312E-07 alpha_mix =  0.700 |ddv_scf|^2 =  4.492E-13

      iter #   7 total cpu time :  4157.3 secs   av.it.:   9.3
      thresh= 6.702E-08 alpha_mix =  0.700 |ddv_scf|^2 =  1.481E-14

      iter #   8 total cpu time :  4189.7 secs   av.it.:   9.1
      thresh= 1.217E-08 alpha_mix =  0.700 |ddv_scf|^2 =  4.663E-16

      iter #   9 total cpu time :  4220.0 secs   av.it.:   9.3
      thresh= 2.159E-09 alpha_mix =  0.700 |ddv_scf|^2 =  8.580E-18

     End of self-consistent calculation

     Convergence has been achieved 


     Representation #  15 mode #  15

     Self-consistent Calculation

      iter #   1 total cpu time :  4245.4 secs   av.it.:   3.7
      thresh= 1.000E-02 alpha_mix =  0.700 |ddv_scf|^2 =  1.326E-07

      iter #   2 total cpu time :  4274.4 secs   av.it.:   9.5
      thresh= 3.641E-05 alpha_mix =  0.700 |ddv_scf|^2 =  4.346E-08

      iter #   3 total cpu time :  4299.0 secs   av.it.:   9.1
      thresh= 2.085E-05 alpha_mix =  0.700 |ddv_scf|^2 =  3.564E-10

      iter #   4 total cpu time :  4326.9 secs   av.it.:   9.4
      thresh= 1.888E-06 alpha_mix =  0.700 |ddv_scf|^2 =  1.798E-11

      iter #   5 total cpu time :  4357.9 secs   av.it.:   9.4
      thresh= 4.241E-07 alpha_mix =  0.700 |ddv_scf|^2 =  3.438E-13

      iter #   6 total cpu time :  4387.0 secs   av.it.:   9.6
      thresh= 5.863E-08 alpha_mix =  0.700 |ddv_scf|^2 =  8.722E-15

      iter #   7 total cpu time :  4418.6 secs   av.it.:   9.7
      thresh= 9.339E-09 alpha_mix =  0.700 |ddv_scf|^2 =  4.223E-16

      iter #   8 total cpu time :  4454.4 secs   av.it.:   9.7
      thresh= 2.055E-09 alpha_mix =  0.700 |ddv_scf|^2 =  2.552E-17

     End of self-consistent calculation

     Convergence has been achieved 


     Representation #  16 mode #  16

     Self-consistent Calculation

      iter #   1 total cpu time :  4479.2 secs   av.it.:   3.8
      thresh= 1.000E-02 alpha_mix =  0.700 |ddv_scf|^2 =  7.918E-08

      iter #   2 total cpu time :  4503.3 secs   av.it.:   9.6
      thresh= 2.814E-05 alpha_mix =  0.700 |ddv_scf|^2 =  9.954E-09

      iter #   3 total cpu time :  4530.7 secs   av.it.:   9.6
      thresh= 9.977E-06 alpha_mix =  0.700 |ddv_scf|^2 =  5.327E-10

      iter #   4 total cpu time :  4556.3 secs   av.it.:   9.2
      thresh= 2.308E-06 alpha_mix =  0.700 |ddv_scf|^2 =  3.774E-11

      iter #   5 total cpu time :  4582.9 secs   av.it.:   9.4
      thresh= 6.143E-07 alpha_mix =  0.700 |ddv_scf|^2 =  5.113E-13

      iter #   6 total cpu time :  4613.4 secs   av.it.:   9.6
      thresh= 7.150E-08 alpha_mix =  0.700 |ddv_scf|^2 =  1.149E-14

      iter #   7 total cpu time :  4643.8 secs   av.it.:   9.8
      thresh= 1.072E-08 alpha_mix =  0.700 |ddv_scf|^2 =  5.668E-16

      iter #   8 total cpu time :  4673.6 secs   av.it.:   9.6
      thresh= 2.381E-09 alpha_mix =  0.700 |ddv_scf|^2 =  1.970E-17

     End of self-consistent calculation

     Convergence has been achieved 


     Representation #  17 mode #  17

     Self-consistent Calculation

      iter #   1 total cpu time :  4699.9 secs   av.it.:   3.7
      thresh= 1.000E-02 alpha_mix =  0.700 |ddv_scf|^2 =  1.256E-07

      iter #   2 total cpu time :  4723.7 secs   av.it.:   9.5
      thresh= 3.544E-05 alpha_mix =  0.700 |ddv_scf|^2 =  4.183E-08

      iter #   3 total cpu time :  4752.2 secs   av.it.:   9.0
      thresh= 2.045E-05 alpha_mix =  0.700 |ddv_scf|^2 =  3.385E-10

      iter #   4 total cpu time :  4780.2 secs   av.it.:   9.3
      thresh= 1.840E-06 alpha_mix =  0.700 |ddv_scf|^2 =  1.132E-11

      iter #   5 total cpu time :  4811.4 secs   av.it.:   9.4
      thresh= 3.364E-07 alpha_mix =  0.700 |ddv_scf|^2 =  3.301E-13

      iter #   6 total cpu time :  4841.3 secs   av.it.:   9.6
      thresh= 5.745E-08 alpha_mix =  0.700 |ddv_scf|^2 =  7.599E-15

      iter #   7 total cpu time :  4870.6 secs   av.it.:   9.8
      thresh= 8.717E-09 alpha_mix =  0.700 |ddv_scf|^2 =  4.062E-16

      iter #   8 total cpu time :  4902.2 secs   av.it.:   9.7
      thresh= 2.015E-09 alpha_mix =  0.700 |ddv_scf|^2 =  2.397E-17

     End of self-consistent calculation

     Convergence has been achieved 


     Representation #  18 mode #  18

     Self-consistent Calculation

      iter #   1 total cpu time :  4926.9 secs   av.it.:   3.8
      thresh= 1.000E-02 alpha_mix =  0.700 |ddv_scf|^2 =  1.710E-07

      iter #   2 total cpu time :  4952.3 secs   av.it.:   9.5
      thresh= 4.135E-05 alpha_mix =  0.700 |ddv_scf|^2 =  6.078E-08

      iter #   3 total cpu time :  4981.4 secs   av.it.:   9.0
      thresh= 2.465E-05 alpha_mix =  0.700 |ddv_scf|^2 =  2.775E-10

      iter #   4 total cpu time :  5010.3 secs   av.it.:   9.5
      thresh= 1.666E-06 alpha_mix =  0.700 |ddv_scf|^2 =  1.531E-11

      iter #   5 total cpu time :  5039.5 secs   av.it.:   9.5
      thresh= 3.912E-07 alpha_mix =  0.700 |ddv_scf|^2 =  2.330E-13

      iter #   6 total cpu time :  5071.1 secs   av.it.:   9.6
      thresh= 4.827E-08 alpha_mix =  0.700 |ddv_scf|^2 =  4.759E-15

      iter #   7 total cpu time :  5101.6 secs   av.it.:   9.8
      thresh= 6.899E-09 alpha_mix =  0.700 |ddv_scf|^2 =  2.839E-16

      iter #   8 total cpu time :  5131.4 secs   av.it.:   9.5
      thresh= 1.685E-09 alpha_mix =  0.700 |ddv_scf|^2 =  1.144E-17

     End of self-consistent calculation

     Convergence has been achieved 


     Representation #  19 mode #  19

     Self-consistent Calculation

      iter #   1 total cpu time :  5156.7 secs   av.it.:   4.0
      thresh= 1.000E-02 alpha_mix =  0.700 |ddv_scf|^2 =  1.719E-07

      iter #   2 total cpu time :  5185.4 secs   av.it.:   9.5
      thresh= 4.146E-05 alpha_mix =  0.700 |ddv_scf|^2 =  3.279E-08

      iter #   3 total cpu time :  5211.9 secs   av.it.:   9.4
      thresh= 1.811E-05 alpha_mix =  0.700 |ddv_scf|^2 =  1.087E-09

      iter #   4 total cpu time :  5241.3 secs   av.it.:   9.1
      thresh= 3.297E-06 alpha_mix =  0.700 |ddv_scf|^2 =  3.655E-11

      iter #   5 total cpu time :  5271.6 secs   av.it.:   9.4
      thresh= 6.046E-07 alpha_mix =  0.700 |ddv_scf|^2 =  1.012E-12

      iter #   6 total cpu time :  5303.2 secs   av.it.:   9.5
      thresh= 1.006E-07 alpha_mix =  0.700 |ddv_scf|^2 =  1.510E-14

      iter #   7 total cpu time :  5335.5 secs   av.it.:   9.8
      thresh= 1.229E-08 alpha_mix =  0.700 |ddv_scf|^2 =  7.492E-16

      iter #   8 total cpu time :  5369.9 secs   av.it.:   9.6
      thresh= 2.737E-09 alpha_mix =  0.700 |ddv_scf|^2 =  2.701E-17

     End of self-consistent calculation

     Convergence has been achieved 


     Representation #  20 mode #  20

     Self-consistent Calculation

      iter #   1 total cpu time :  5398.3 secs   av.it.:   3.9
      thresh= 1.000E-02 alpha_mix =  0.700 |ddv_scf|^2 =  1.792E-07

      iter #   2 total cpu time :  5422.0 secs   av.it.:   9.6
      thresh= 4.233E-05 alpha_mix =  0.700 |ddv_scf|^2 =  5.017E-08

      iter #   3 total cpu time :  5450.8 secs   av.it.:   9.3
      thresh= 2.240E-05 alpha_mix =  0.700 |ddv_scf|^2 =  5.940E-10

      iter #   4 total cpu time :  5480.4 secs   av.it.:   9.4
      thresh= 2.437E-06 alpha_mix =  0.700 |ddv_scf|^2 =  2.807E-11

      iter #   5 total cpu time :  5509.7 secs   av.it.:   9.4
      thresh= 5.298E-07 alpha_mix =  0.700 |ddv_scf|^2 =  4.275E-13

      iter #   6 total cpu time :  5538.8 secs   av.it.:   9.6
      thresh= 6.538E-08 alpha_mix =  0.700 |ddv_scf|^2 =  7.347E-15

      iter #   7 total cpu time :  5569.0 secs   av.it.:   9.8
      thresh= 8.572E-09 alpha_mix =  0.700 |ddv_scf|^2 =  3.976E-16

      iter #   8 total cpu time :  5598.6 secs   av.it.:   9.5
      thresh= 1.994E-09 alpha_mix =  0.700 |ddv_scf|^2 =  1.742E-17

     End of self-consistent calculation

     Convergence has been achieved 


     Representation #  21 mode #  21

     Self-consistent Calculation

      iter #   1 total cpu time :  5626.7 secs   av.it.:   3.8
      thresh= 1.000E-02 alpha_mix =  0.700 |ddv_scf|^2 =  1.328E-07

      iter #   2 total cpu time :  5652.0 secs   av.it.:   9.4
      thresh= 3.644E-05 alpha_mix =  0.700 |ddv_scf|^2 =  3.779E-08

      iter #   3 total cpu time :  5679.9 secs   av.it.:   9.0
      thresh= 1.944E-05 alpha_mix =  0.700 |ddv_scf|^2 =  5.402E-10

      iter #   4 total cpu time :  5707.1 secs   av.it.:   9.3
      thresh= 2.324E-06 alpha_mix =  0.700 |ddv_scf|^2 =  2.400E-11

      iter #   5 total cpu time :  5734.5 secs   av.it.:   9.5
      thresh= 4.899E-07 alpha_mix =  0.700 |ddv_scf|^2 =  5.194E-13

      iter #   6 total cpu time :  5762.4 secs   av.it.:   9.6
      thresh= 7.207E-08 alpha_mix =  0.700 |ddv_scf|^2 =  2.010E-14

      iter #   7 total cpu time :  5794.6 secs   av.it.:   9.6
      thresh= 1.418E-08 alpha_mix =  0.700 |ddv_scf|^2 =  7.302E-16

      iter #   8 total cpu time :  5826.9 secs   av.it.:   9.6
      thresh= 2.702E-09 alpha_mix =  0.700 |ddv_scf|^2 =  3.874E-17

     End of self-consistent calculation

     Convergence has been achieved 
 
     Number of q in the star =   24
     List of q in the star:
          1   0.108253200  -0.108253200   0.433012700
          2  -0.108253200  -0.108253200  -0.433012700
          3   0.108253200   0.108253200  -0.433012700
          4  -0.108253200   0.108253200  -0.433012700
          5   0.108253200  -0.108253200  -0.433012700
          6  -0.108253200  -0.108253200   0.433012700
          7   0.108253200   0.108253200   0.433012700
          8   0.433012700   0.108253200   0.108253200
          9  -0.433012700   0.108253200  -0.108253200
         10   0.433012700  -0.108253200  -0.108253200
         11  -0.433012700  -0.108253200   0.108253200
         12  -0.108253200   0.433012700  -0.108253200
         13  -0.108253200  -0.433012700   0.108253200
         14   0.108253200   0.433012700   0.108253200
         15   0.108253200  -0.433012700  -0.108253200
         16  -0.108253200   0.433012700   0.108253200
         17   0.108253200   0.433012700  -0.108253200
         18  -0.108253200  -0.433012700  -0.108253200
         19   0.108253200  -0.433012700   0.108253200
         20   0.433012700   0.108253200  -0.108253200
         21   0.433012700  -0.108253200   0.108253200
         22  -0.433012700  -0.108253200  -0.108253200
         23  -0.433012700   0.108253200   0.108253200
         24  -0.108253200   0.108253200   0.433012700

     Diagonalizing the dynamical matrix

     q = (    0.108253200  -0.108253200   0.433012700 ) 

 **************************************************************************
     freq (    1) =       7.543990 [THz] =     251.640412 [cm-1]
     freq (    2) =       8.419801 [THz] =     280.854330 [cm-1]
     freq (    3) =      13.646544 [THz] =     455.199721 [cm-1]
     freq (    4) =      27.810259 [THz] =     927.650403 [cm-1]
     freq (    5) =      28.481444 [THz] =     950.038701 [cm-1]
     freq (    6) =      30.944032 [THz] =    1032.181807 [cm-1]
     freq (    7) =      35.837635 [THz] =    1195.414820 [cm-1]
     freq (    8) =      36.531654 [THz] =    1218.564811 [cm-1]
     freq (    9) =      37.805893 [THz] =    1261.068860 [cm-1]
     freq (   10) =      38.706290 [THz] =    1291.102863 [cm-1]
     freq (   11) =      40.388634 [THz] =    1347.219824 [cm-1]
     freq (   12) =      41.296513 [THz] =    1377.503415 [cm-1]
     freq (   13) =      42.613031 [THz] =    1421.417709 [cm-1]
     freq (   14) =      43.117028 [THz] =    1438.229258 [cm-1]
     freq (   15) =      43.974333 [THz] =    1466.825854 [cm-1]
     freq (   16) =      44.774300 [THz] =    1493.509874 [cm-1]
     freq (   17) =      44.865802 [THz] =    1496.562074 [cm-1]
     freq (   18) =      48.637182 [THz] =    1622.361755 [cm-1]
     freq (   19) =      48.792448 [THz] =    1627.540869 [cm-1]
     freq (   20) =      56.228547 [THz] =    1875.582439 [cm-1]
     freq (   21) =      60.509058 [THz] =    2018.364912 [cm-1]
 **************************************************************************

     Mode symmetry, C_s (m)     point group:

     freq (   1-   1) =        251.6  [cm-1]   --> A''                
     freq (   2-   2) =        280.9  [cm-1]   --> A'                 
     freq (   3-   3) =        455.2  [cm-1]   --> A'                 
     freq (   4-   4) =        927.7  [cm-1]   --> A'                 
     freq (   5-   5) =        950.0  [cm-1]   --> A''                
     freq (   6-   6) =       1032.2  [cm-1]   --> A'                 
     freq (   7-   7) =       1195.4  [cm-1]   --> A'                 
     freq (   8-   8) =       1218.6  [cm-1]   --> A''                
     freq (   9-   9) =       1261.1  [cm-1]   --> A''                
     freq (  10-  10) =       1291.1  [cm-1]   --> A'                 
     freq (  11-  11) =       1347.2  [cm-1]   --> A''                
     freq (  12-  12) =       1377.5  [cm-1]   --> A'                 
     freq (  13-  13) =       1421.4  [cm-1]   --> A''                
     freq (  14-  14) =       1438.2  [cm-1]   --> A'                 
     freq (  15-  15) =       1466.8  [cm-1]   --> A''                
     freq (  16-  16) =       1493.5  [cm-1]   --> A''                
     freq (  17-  17) =       1496.6  [cm-1]   --> A'                 
     freq (  18-  18) =       1622.4  [cm-1]   --> A'                 
     freq (  19-  19) =       1627.5  [cm-1]   --> A''                
     freq (  20-  20) =       1875.6  [cm-1]   --> A''                
     freq (  21-  21) =       2018.4  [cm-1]   --> A'                 
     electron-phonon interaction  ...

     Gaussian Broadening:   0.005 Ry, ngauss=   0
     DOS =  1.900675 states/spin/Ry/Unit Cell at Ef= 17.155196 eV
     lambda(    1)=  0.0612   gamma=    6.32 GHz
     lambda(    2)=  0.0699   gamma=    9.00 GHz
     lambda(    3)=  0.0283   gamma=    9.57 GHz
     lambda(    4)=  0.5433   gamma=  762.73 GHz
     lambda(    5)=  0.0330   gamma=   48.54 GHz
     lambda(    6)=  0.0531   gamma=   92.29 GHz
     lambda(    7)=  0.0914   gamma=  213.03 GHz
     lambda(    8)=  0.0363   gamma=   88.02 GHz
     lambda(    9)=  0.0848   gamma=  220.03 GHz
     lambda(   10)=  0.0920   gamma=  250.22 GHz
     lambda(   11)=  0.0071   gamma=   20.88 GHz
     lambda(   12)=  0.0555   gamma=  171.70 GHz
     lambda(   13)=  0.0031   gamma=   10.36 GHz
     lambda(   14)=  0.0043   gamma=   14.43 GHz
     lambda(   15)=  0.0038   gamma=   13.26 GHz
     lambda(   16)=  0.0009   gamma=    3.38 GHz
     lambda(   17)=  0.0266   gamma=   97.15 GHz
     lambda(   18)=  0.0038   gamma=   16.42 GHz
     lambda(   19)=  0.0030   gamma=   12.99 GHz
     lambda(   20)=  0.0119   gamma=   68.41 GHz
     lambda(   21)=  0.0172   gamma=  114.07 GHz
     Gaussian Broadening:   0.010 Ry, ngauss=   0
     DOS =  2.130656 states/spin/Ry/Unit Cell at Ef= 17.149400 eV
     lambda(    1)=  0.1924   gamma=   22.28 GHz
     lambda(    2)=  0.1263   gamma=   18.22 GHz
     lambda(    3)=  0.0364   gamma=   13.81 GHz
     lambda(    4)=  0.5737   gamma=  902.84 GHz
     lambda(    5)=  0.1014   gamma=  167.39 GHz
     lambda(    6)=  0.1112   gamma=  216.64 GHz
     lambda(    7)=  0.1868   gamma=  488.10 GHz
     lambda(    8)=  0.1141   gamma=  309.93 GHz
     lambda(    9)=  0.1513   gamma=  439.98 GHz
     lambda(   10)=  0.0690   gamma=  210.28 GHz
     lambda(   11)=  0.0191   gamma=   63.40 GHz
     lambda(   12)=  0.0528   gamma=  183.28 GHz
     lambda(   13)=  0.0088   gamma=   32.38 GHz
     lambda(   14)=  0.0088   gamma=   33.11 GHz
     lambda(   15)=  0.0035   gamma=   13.91 GHz
     lambda(   16)=  0.0029   gamma=   11.64 GHz
     lambda(   17)=  0.0287   gamma=  117.37 GHz
     lambda(   18)=  0.0102   gamma=   49.03 GHz
     lambda(   19)=  0.0064   gamma=   31.04 GHz
     lambda(   20)=  0.0103   gamma=   66.35 GHz
     lambda(   21)=  0.0262   gamma=  194.95 GHz
     Gaussian Broadening:   0.015 Ry, ngauss=   0
     DOS =  2.235086 states/spin/Ry/Unit Cell at Ef= 17.146382 eV
     lambda(    1)=  0.2366   gamma=   28.74 GHz
     lambda(    2)=  0.1306   gamma=   19.76 GHz
     lambda(    3)=  0.0358   gamma=   14.24 GHz
     lambda(    4)=  0.6130   gamma= 1011.96 GHz
     lambda(    5)=  0.1201   gamma=  208.01 GHz
     lambda(    6)=  0.1332   gamma=  272.28 GHz
     lambda(    7)=  0.1845   gamma=  505.72 GHz
     lambda(    8)=  0.1432   gamma=  407.96 GHz
     lambda(    9)=  0.1604   gamma=  489.41 GHz
     lambda(   10)=  0.0650   gamma=  207.90 GHz
     lambda(   11)=  0.0227   gamma=   79.10 GHz
     lambda(   12)=  0.0521   gamma=  189.71 GHz
     lambda(   13)=  0.0102   gamma=   39.48 GHz
     lambda(   14)=  0.0104   gamma=   41.18 GHz
     lambda(   15)=  0.0033   gamma=   13.58 GHz
     lambda(   16)=  0.0039   gamma=   16.85 GHz
     lambda(   17)=  0.0316   gamma=  135.62 GHz
     lambda(   18)=  0.0109   gamma=   55.03 GHz
     lambda(   19)=  0.0074   gamma=   37.80 GHz
     lambda(   20)=  0.0099   gamma=   66.68 GHz
     lambda(   21)=  0.0253   gamma=  197.61 GHz
     Gaussian Broadening:   0.020 Ry, ngauss=   0
     DOS =  2.290454 states/spin/Ry/Unit Cell at Ef= 17.145317 eV
     lambda(    1)=  0.2548   gamma=   31.72 GHz
     lambda(    2)=  0.1308   gamma=   20.28 GHz
     lambda(    3)=  0.0360   gamma=   14.64 GHz
     lambda(    4)=  0.6140   gamma= 1038.70 GHz
     lambda(    5)=  0.1289   gamma=  228.70 GHz
     lambda(    6)=  0.1396   gamma=  292.47 GHz
     lambda(    7)=  0.1801   gamma=  505.87 GHz
     lambda(    8)=  0.1549   gamma=  452.23 GHz
     lambda(    9)=  0.1670   gamma=  522.08 GHz
     lambda(   10)=  0.0632   gamma=  207.01 GHz
     lambda(   11)=  0.0248   gamma=   88.47 GHz
     lambda(   12)=  0.0511   gamma=  190.64 GHz
     lambda(   13)=  0.0106   gamma=   42.28 GHz
     lambda(   14)=  0.0110   gamma=   44.59 GHz
     lambda(   15)=  0.0033   gamma=   14.10 GHz
     lambda(   16)=  0.0044   gamma=   19.12 GHz
     lambda(   17)=  0.0317   gamma=  139.42 GHz
     lambda(   18)=  0.0110   gamma=   56.68 GHz
     lambda(   19)=  0.0079   gamma=   41.19 GHz
     lambda(   20)=  0.0097   gamma=   67.41 GHz
     lambda(   21)=  0.0248   gamma=  198.78 GHz
     Gaussian Broadening:   0.025 Ry, ngauss=   0
     DOS =  2.332190 states/spin/Ry/Unit Cell at Ef= 17.144758 eV
     lambda(    1)=  0.2609   gamma=   33.06 GHz
     lambda(    2)=  0.1305   gamma=   20.61 GHz
     lambda(    3)=  0.0366   gamma=   15.16 GHz
     lambda(    4)=  0.6021   gamma= 1037.10 GHz
     lambda(    5)=  0.1334   gamma=  240.98 GHz
     lambda(    6)=  0.1402   gamma=  299.01 GHz
     lambda(    7)=  0.1788   gamma=  511.56 GHz
     lambda(    8)=  0.1587   gamma=  471.59 GHz
     lambda(    9)=  0.1729   gamma=  550.23 GHz
     lambda(   10)=  0.0626   gamma=  208.90 GHz
     lambda(   11)=  0.0257   gamma=   93.45 GHz
     lambda(   12)=  0.0510   gamma=  193.84 GHz
     lambda(   13)=  0.0109   gamma=   44.04 GHz
     lambda(   14)=  0.0112   gamma=   46.17 GHz
     lambda(   15)=  0.0034   gamma=   14.76 GHz
     lambda(   16)=  0.0045   gamma=   19.91 GHz
     lambda(   17)=  0.0310   gamma=  139.01 GHz
     lambda(   18)=  0.0109   gamma=   57.22 GHz
     lambda(   19)=  0.0082   gamma=   43.26 GHz
     lambda(   20)=  0.0097   gamma=   68.29 GHz
     lambda(   21)=  0.0248   gamma=  202.62 GHz
     Gaussian Broadening:   0.030 Ry, ngauss=   0
     DOS =  2.360595 states/spin/Ry/Unit Cell at Ef= 17.144134 eV
     lambda(    1)=  0.2612   gamma=   33.51 GHz
     lambda(    2)=  0.1302   gamma=   20.81 GHz
     lambda(    3)=  0.0370   gamma=   15.54 GHz
     lambda(    4)=  0.5878   gamma= 1024.82 GHz
     lambda(    5)=  0.1356   gamma=  247.96 GHz
     lambda(    6)=  0.1392   gamma=  300.42 GHz
     lambda(    7)=  0.1782   gamma=  515.92 GHz
     lambda(    8)=  0.1588   gamma=  477.81 GHz
     lambda(    9)=  0.1764   gamma=  568.40 GHz
     lambda(   10)=  0.0623   gamma=  210.53 GHz
     lambda(   11)=  0.0260   gamma=   95.54 GHz
     lambda(   12)=  0.0511   gamma=  196.37 GHz
     lambda(   13)=  0.0111   gamma=   45.26 GHz
     lambda(   14)=  0.0112   gamma=   47.11 GHz
     lambda(   15)=  0.0035   gamma=   15.21 GHz
     lambda(   16)=  0.0045   gamma=   20.33 GHz
     lambda(   17)=  0.0303   gamma=  137.56 GHz
     lambda(   18)=  0.0107   gamma=   57.26 GHz
     lambda(   19)=  0.0083   gamma=   44.51 GHz
     lambda(   20)=  0.0097   gamma=   68.79 GHz
     lambda(   21)=  0.0249   gamma=  205.73 GHz
     Gaussian Broadening:   0.035 Ry, ngauss=   0
     DOS =  2.381114 states/spin/Ry/Unit Cell at Ef= 17.143351 eV
     lambda(    1)=  0.2597   gamma=   33.60 GHz
     lambda(    2)=  0.1300   gamma=   20.95 GHz
     lambda(    3)=  0.0374   gamma=   15.82 GHz
     lambda(    4)=  0.5743   gamma= 1010.03 GHz
     lambda(    5)=  0.1374   gamma=  253.43 GHz
     lambda(    6)=  0.1381   gamma=  300.58 GHz
     lambda(    7)=  0.1777   gamma=  518.96 GHz
     lambda(    8)=  0.1576   gamma=  478.32 GHz
     lambda(    9)=  0.1785   gamma=  580.13 GHz
     lambda(   10)=  0.0623   gamma=  212.06 GHz
     lambda(   11)=  0.0260   gamma=   96.39 GHz
     lambda(   12)=  0.0510   gamma=  197.90 GHz
     lambda(   13)=  0.0112   gamma=   46.42 GHz
     lambda(   14)=  0.0114   gamma=   48.00 GHz
     lambda(   15)=  0.0035   gamma=   15.52 GHz
     lambda(   16)=  0.0046   gamma=   20.84 GHz
     lambda(   17)=  0.0298   gamma=  136.38 GHz
     lambda(   18)=  0.0106   gamma=   57.14 GHz
     lambda(   19)=  0.0084   gamma=   45.44 GHz
     lambda(   20)=  0.0096   gamma=   69.33 GHz
     lambda(   21)=  0.0250   gamma=  208.08 GHz
     Gaussian Broadening:   0.040 Ry, ngauss=   0
     DOS =  2.398900 states/spin/Ry/Unit Cell at Ef= 17.142416 eV
     lambda(    1)=  0.2579   gamma=   33.62 GHz
     lambda(    2)=  0.1301   gamma=   21.12 GHz
     lambda(    3)=  0.0377   gamma=   16.07 GHz
     lambda(    4)=  0.5625   gamma=  996.56 GHz
     lambda(    5)=  0.1397   gamma=  259.55 GHz
     lambda(    6)=  0.1373   gamma=  301.20 GHz
     lambda(    7)=  0.1775   gamma=  522.10 GHz
     lambda(    8)=  0.1561   gamma=  477.12 GHz
     lambda(    9)=  0.1799   gamma=  589.17 GHz
     lambda(   10)=  0.0624   gamma=  214.07 GHz
     lambda(   11)=  0.0260   gamma=   96.99 GHz
     lambda(   12)=  0.0510   gamma=  199.08 GHz
     lambda(   13)=  0.0115   gamma=   47.78 GHz
     lambda(   14)=  0.0115   gamma=   49.03 GHz
     lambda(   15)=  0.0036   gamma=   15.82 GHz
     lambda(   16)=  0.0047   gamma=   21.54 GHz
     lambda(   17)=  0.0295   gamma=  136.03 GHz
     lambda(   18)=  0.0105   gamma=   57.09 GHz
     lambda(   19)=  0.0085   gamma=   46.36 GHz
     lambda(   20)=  0.0097   gamma=   70.22 GHz
     lambda(   21)=  0.0251   gamma=  210.28 GHz
     Gaussian Broadening:   0.045 Ry, ngauss=   0
     DOS =  2.416850 states/spin/Ry/Unit Cell at Ef= 17.141341 eV
     lambda(    1)=  0.2564   gamma=   33.68 GHz
     lambda(    2)=  0.1304   gamma=   21.33 GHz
     lambda(    3)=  0.0380   gamma=   16.34 GHz
     lambda(    4)=  0.5523   gamma=  985.82 GHz
     lambda(    5)=  0.1427   gamma=  267.07 GHz
     lambda(    6)=  0.1370   gamma=  302.81 GHz
     lambda(    7)=  0.1774   gamma=  525.79 GHz
     lambda(    8)=  0.1545   gamma=  476.00 GHz
     lambda(    9)=  0.1811   gamma=  597.45 GHz
     lambda(   10)=  0.0627   gamma=  216.71 GHz
     lambda(   11)=  0.0260   gamma=   97.74 GHz
     lambda(   12)=  0.0509   gamma=  200.33 GHz
     lambda(   13)=  0.0118   gamma=   49.44 GHz
     lambda(   14)=  0.0117   gamma=   50.28 GHz
     lambda(   15)=  0.0036   gamma=   16.14 GHz
     lambda(   16)=  0.0048   gamma=   22.41 GHz
     lambda(   17)=  0.0294   gamma=  136.62 GHz
     lambda(   18)=  0.0105   gamma=   57.20 GHz
     lambda(   19)=  0.0086   gamma=   47.37 GHz
     lambda(   20)=  0.0098   gamma=   71.53 GHz
     lambda(   21)=  0.0252   gamma=  212.78 GHz
     Gaussian Broadening:   0.050 Ry, ngauss=   0
     DOS =  2.436152 states/spin/Ry/Unit Cell at Ef= 17.140123 eV
     lambda(    1)=  0.2553   gamma=   33.81 GHz
     lambda(    2)=  0.1309   gamma=   21.59 GHz
     lambda(    3)=  0.0384   gamma=   16.63 GHz
     lambda(    4)=  0.5436   gamma=  978.04 GHz
     lambda(    5)=  0.1463   gamma=  276.10 GHz
     lambda(    6)=  0.1371   gamma=  305.48 GHz
     lambda(    7)=  0.1773   gamma=  529.84 GHz
     lambda(    8)=  0.1532   gamma=  475.66 GHz
     lambda(    9)=  0.1822   gamma=  605.68 GHz
     lambda(   10)=  0.0631   gamma=  219.87 GHz
     lambda(   11)=  0.0260   gamma=   98.75 GHz
     lambda(   12)=  0.0509   gamma=  201.84 GHz
     lambda(   13)=  0.0122   gamma=   51.44 GHz
     lambda(   14)=  0.0120   gamma=   51.76 GHz
     lambda(   15)=  0.0037   gamma=   16.50 GHz
     lambda(   16)=  0.0050   gamma=   23.41 GHz
     lambda(   17)=  0.0295   gamma=  138.07 GHz
     lambda(   18)=  0.0105   gamma=   57.51 GHz
     lambda(   19)=  0.0088   gamma=   48.53 GHz
     lambda(   20)=  0.0100   gamma=   73.21 GHz
     lambda(   21)=  0.0253   gamma=  215.90 GHz
 
 
     Number of q in the star =   24
     List of q in the star:
          1   0.108253200  -0.108253200   0.433012700
          2  -0.108253200  -0.108253200  -0.433012700
          3   0.108253200   0.108253200  -0.433012700
          4  -0.108253200   0.108253200  -0.433012700
          5   0.108253200  -0.108253200  -0.433012700
          6  -0.108253200  -0.108253200   0.433012700
          7   0.108253200   0.108253200   0.433012700
          8   0.433012700   0.108253200   0.108253200
          9  -0.433012700   0.108253200  -0.108253200
         10   0.433012700  -0.108253200  -0.108253200
         11  -0.433012700  -0.108253200   0.108253200
         12  -0.108253200   0.433012700  -0.108253200
         13  -0.108253200  -0.433012700   0.108253200
         14   0.108253200   0.433012700   0.108253200
         15   0.108253200  -0.433012700  -0.108253200
         16  -0.108253200   0.433012700   0.108253200
         17   0.108253200   0.433012700  -0.108253200
         18  -0.108253200  -0.433012700  -0.108253200
         19   0.108253200  -0.433012700   0.108253200
         20   0.433012700   0.108253200  -0.108253200
         21   0.433012700  -0.108253200   0.108253200
         22  -0.433012700  -0.108253200  -0.108253200
         23  -0.433012700   0.108253200   0.108253200
         24  -0.108253200   0.108253200   0.433012700
 
     init_run     :      0.07s CPU      0.18s WALL (       1 calls)
     electrons    :     26.91s CPU     29.57s WALL (       1 calls)

     Called by init_run:
     wfcinit      :      0.00s CPU      0.04s WALL (       1 calls)
     potinit      :      0.01s CPU      0.06s WALL (       1 calls)
     hinit0       :      0.04s CPU      0.04s WALL (       1 calls)

     Called by electrons:
     c_bands      :     26.86s CPU     29.53s WALL (       1 calls)
     v_of_rho     :      0.01s CPU      0.03s WALL (       2 calls)
     newd         :      0.00s CPU      0.01s WALL (       2 calls)

     Called by c_bands:
     init_us_2    :      3.66s CPU      4.11s WALL (  138720 calls)
     cegterg      :     16.79s CPU     18.15s WALL (    1103 calls)

     Called by *egterg:
     cdiaghg      :      5.86s CPU      6.29s WALL (   17247 calls)
     h_psi        :   2041.73s CPU   2504.47s WALL ( 1541655 calls)
     s_psi        :     31.11s CPU     35.33s WALL ( 3177568 calls)
     g_psi        :      0.05s CPU      0.06s WALL (   16159 calls)

     Called by h_psi:
     h_psi:calbec :     28.66s CPU     32.25s WALL ( 1541655 calls)
     vloc_psi     :   1984.91s CPU   2440.34s WALL ( 1541655 calls)
     add_vuspsi   :     15.05s CPU     17.09s WALL ( 1541655 calls)

     General routines
     calbec       :     98.44s CPU    106.65s WALL ( 3354912 calls)
     fft          :      0.70s CPU      0.98s WALL (    4023 calls)
     ffts         :      0.84s CPU      0.99s WALL (   12323 calls)
     fftw         :   2754.71s CPU   3414.19s WALL (21136926 calls)
     interpolate  :      0.33s CPU      0.42s WALL (     437 calls)
     davcio       :     20.54s CPU    587.04s WALL (  604161 calls)
 
     Parallel routines
 
     PHONON       :      1h14m CPU      1h37m WALL

     INITIALIZATION: 
     phq_setup    :      0.01s CPU      0.04s WALL (       1 calls)
     phq_init     :     22.10s CPU     24.68s WALL (       1 calls)
 
     phq_init     :     22.10s CPU     24.68s WALL (       1 calls)
     set_drhoc    :      0.05s CPU      0.05s WALL (       3 calls)
     init_vloc    :      0.00s CPU      0.00s WALL (       2 calls)
     init_us_1    :      0.06s CPU      0.09s WALL (       2 calls)
     newd         :      0.00s CPU      0.01s WALL (       2 calls)
     dvanqq       :      0.16s CPU      0.16s WALL (       1 calls)
     drho         :     14.38s CPU     16.20s WALL (       1 calls)
 
     DYNAMICAL MATRIX:
     dynmat0      :      3.81s CPU      4.17s WALL (       1 calls)
     phqscf       :   4400.35s CPU   5780.87s WALL (       1 calls)
     dynmatrix    :      0.07s CPU      0.09s WALL (       1 calls)
 
     phqscf       :   4400.35s CPU   5780.87s WALL (       1 calls)
     solve_linter :   4360.08s CPU   5733.91s WALL (      21 calls)
     drhodv       :     40.24s CPU     44.26s WALL (      21 calls)
 
     dynmat0      :      3.81s CPU      4.17s WALL (       1 calls)
     dynmat_us    :      3.77s CPU      4.11s WALL (       1 calls)
     d2ionq       :      0.01s CPU      0.01s WALL (       1 calls)
     dynmatcc     :      0.04s CPU      0.04s WALL (       1 calls)
 
     dynmat_us    :      3.77s CPU      4.11s WALL (       1 calls)
     addusdynmat  :      0.00s CPU      0.00s WALL (       1 calls)
 
     phqscf       :   4400.35s CPU   5780.87s WALL (       1 calls)
     solve_linter :   4360.08s CPU   5733.91s WALL (      21 calls)
 
     solve_linter :   4360.08s CPU   5733.91s WALL (      21 calls)
     dvqpsi_us    :     17.02s CPU     18.53s WALL (   11424 calls)
     ortho        :     42.22s CPU     44.49s WALL (  112608 calls)
     cgsolve      :   2148.10s CPU   2625.37s WALL (  112608 calls)
     incdrhoscf   :    375.36s CPU    472.58s WALL (  112608 calls)
     addusddens   :      2.73s CPU      3.41s WALL (     228 calls)
     vpsifft      :    458.23s CPU    573.72s WALL (  112608 calls)
     dv_of_drho   :      0.62s CPU      0.66s WALL (     207 calls)
     mix_pot      :     19.06s CPU     57.92s WALL (     207 calls)
     psymdvscf    :      6.20s CPU      6.50s WALL (     207 calls)
     newdq        :      2.37s CPU      2.39s WALL (     207 calls)
     adddvscf     :      3.67s CPU      4.17s WALL (  112608 calls)
     drhodvus     :      5.08s CPU      7.57s WALL (      21 calls)
 
     dvqpsi_us    :     17.02s CPU     18.53s WALL (   11424 calls)
     dvqpsi_us_on :      6.49s CPU      6.89s WALL (   11424 calls)
 
     cgsolve      :   2148.10s CPU   2625.37s WALL (  112608 calls)
     ch_psi       :   2128.17s CPU   2602.57s WALL ( 1523305 calls)
 
     ch_psi       :   2128.17s CPU   2602.57s WALL ( 1523305 calls)
     h_psi        :   2041.73s CPU   2504.47s WALL ( 1541655 calls)
     last         :     64.00s CPU     72.34s WALL ( 1523305 calls)
 
     h_psi        :   2041.73s CPU   2504.47s WALL ( 1541655 calls)
     add_vuspsi   :     15.05s CPU     17.09s WALL ( 1541655 calls)
 
     incdrhoscf   :    375.36s CPU    472.58s WALL (  112608 calls)
     addusdbec    :      3.64s CPU      4.08s WALL (  124032 calls)
 
     drhodvus     :      5.08s CPU      7.57s WALL (      21 calls)
 
      Electron-phonon coupling
     elphel       :    131.86s CPU    182.81s WALL (      21 calls)
     elphsum      :     32.55s CPU     33.09s WALL (       1 calls)
 
      General routines
     calbec       :     98.44s CPU    106.65s WALL ( 3354912 calls)
     fft          :      0.70s CPU      0.98s WALL (    4023 calls)
     ffts         :      0.84s CPU      0.99s WALL (   12323 calls)
     fftw         :   2754.71s CPU   3414.19s WALL (21136926 calls)
     davcio       :     20.54s CPU    587.04s WALL (  604161 calls)
     write_rec    :      0.17s CPU     29.35s WALL (     228 calls)
 
 
     PHONON       :      1h14m CPU      1h37m WALL

 
   This run was terminated on:  15:43:15  21Jul2022            

=------------------------------------------------------------------------------=
   JOB DONE.
=------------------------------------------------------------------------------=
