
     Program PHONON v.6.8 starts on 27Jul2022 at 15: 9:25 

     This program is part of the open-source Quantum ESPRESSO suite
     for quantum simulation of materials; please cite
         "P. Giannozzi et al., J. Phys.:Condens. Matter 21 395502 (2009);
         "P. Giannozzi et al., J. Phys.:Condens. Matter 29 465901 (2017);
         "P. Giannozzi et al., J. Chem. Phys. 152 154105 (2020);
          URL http://www.quantum-espresso.org", 
     in publications or presentations arising from this work. More details at
     http://www.quantum-espresso.org/quote

     Parallel version (MPI), running on    48 processors

     MPI processes distributed on     1 nodes
     K-points division:     npool     =       4
     R & G space division:  proc/nbgrp/npool/nimage =      12
     188954 MiB available memory on the printing compute node when the environment starts
 
     Waiting for input...
     Reading input from standard input

     Reading xml data from directory:

     ./tmp/Ca1H6.save/

     IMPORTANT: XC functional enforced from input :
     Exchange-correlation= PBE
                           (   1   4   3   4   0   0   0)
     Any further DFT definition will be discarded
     Please, verify this is what you really want

 
     Parallelization info
     --------------------
     sticks:   dense  smooth     PW     G-vecs:    dense   smooth      PW
     Min         139      46     17                 3602      698     155
     Max         140      47     18                 3604      701     157
     Sum        1669     557    205                43227     8391    1865
 
     Using Slab Decomposition
 
     Reading collected, re-writing distributed wavefunctions


     Dynamical matrices for ( 8, 8, 8)  uniform grid of q-points
     (  29 q-points):
       N         xq(1)         xq(2)         xq(3) 
       1   0.000000000   0.000000000   0.000000000
       2   0.108253175   0.108253175   0.000000000
       3   0.216506351   0.216506351   0.000000000
       4   0.324759526   0.324759526   0.000000000
       5  -0.433012702  -0.433012702   0.000000000
       6   0.216506351   0.108253175   0.108253175
       7   0.324759526   0.216506351   0.108253175
       8   0.433012702   0.324759526   0.108253175
       9   0.433012702   0.216506351   0.216506351
      10   0.541265877   0.324759526   0.216506351
      11   0.216506351   0.216506351   0.216506351
      12   0.324759526   0.324759526   0.216506351
      13   0.433012702   0.433012702   0.216506351
      14  -0.000000000  -0.000000000   0.216506351
      15   0.433012702   0.324759526   0.324759526
      16  -0.000000000  -0.108253175   0.324759526
      17  -0.000000000  -0.216506351   0.433012702
      18   0.108253175  -0.108253175   0.433012702
      19  -0.866025404  -0.324759526  -0.324759526
      20  -0.757772228  -0.216506351  -0.324759526
      21  -0.649519053  -0.216506351  -0.216506351
      22   0.433012702   0.433012702   0.433012702
      23  -0.000000000  -0.000000000   0.433012702
      24  -0.000000000  -0.108253175   0.541265877
      25  -0.866025404  -0.216506351  -0.216506351
      26  -0.757772228  -0.108253175  -0.216506351
      27  -0.000000000  -0.000000000   0.649519053
      28  -0.866025404  -0.108253175  -0.108253175
      29  -0.866025404  -0.866025404  -0.866025404

     Saving dvscf to file. Distribute only q points, not irreducible represetations.

     Calculation of q =    0.2165064   0.2165064   0.0000000

     Subspace diagonalization in iterative solution of the eigenvalue problem:
     a serial algorithm will be used

 
     Parallelization info
     --------------------
     sticks:   dense  smooth     PW     G-vecs:    dense   smooth      PW
     Min         139      46     17                 3602      698     155
     Max         140      47     18                 3604      701     157
     Sum        1669     557    205                43227     8391    1865
 
     Using Slab Decomposition
 

     Title: 
     Electron-phonon coefficients for Ca1H6                                     


     bravais-lattice index     =            0
     lattice parameter (alat)  =       5.5613  a.u.
     unit-cell volume          =     132.4087 (a.u.)^3
     number of atoms/cell      =            7
     number of atomic types    =            2
     number of electrons       =        16.00
     number of Kohn-Sham states=           12
     kinetic-energy cutoff     =      60.0000  Ry
     charge density cutoff     =     720.0000  Ry
     Exchange-correlation= PBE
                           (   1   4   3   4   0   0   0)

     celldm(1)=   5.561340  celldm(2)=   0.000000  celldm(3)=   0.000000
     celldm(4)=   0.000000  celldm(5)=   0.000000  celldm(6)=   0.000000

     crystal axes: (cart. coord. in units of alat)
               a(1) = (  -0.577350   0.577350   0.577350 )  
               a(2) = (   0.577350  -0.577350   0.577350 )  
               a(3) = (   0.577350   0.577350  -0.577350 )  

     reciprocal axes: (cart. coord. in units 2 pi/alat)
               b(1) = ( -0.000000  0.866025  0.866025 )  
               b(2) = (  0.866025 -0.000000  0.866025 )  
               b(3) = (  0.866025  0.866025  0.000000 )  


     PseudoPot. # 1 for Ca read from file:
     /work/home/mayuan/code/my_script/scripts_tests/out2/200.0/pp/ca_pbe_v1.uspp.F.UPF
     MD5 check sum: 403a4c14b9e4d4dfdc3024c9a3812218
     Pseudo is Ultrasoft + core correction, Zval = 10.0
     Generated by new atomic code, or converted to UPF format
     Using radial grid of  845 points,  6 beta functions with: 
                l(1) =   0
                l(2) =   0
                l(3) =   1
                l(4) =   1
                l(5) =   2
                l(6) =   2
     Q(r) pseudized with  8 coefficients,  rinner =    1.500   1.500   1.500
                                                       1.500   1.500

     PseudoPot. # 2 for H  read from file:
     /work/home/mayuan/code/my_script/scripts_tests/out2/200.0/pp/h_pbe_v1.uspp.F.UPF
     MD5 check sum: 3408e3ff4ec8b0a4e358431e7e038a48
     Pseudo is Ultrasoft, Zval =  1.0
     Generated by new atomic code, or converted to UPF format
     Using radial grid of  615 points,  2 beta functions with: 
                l(1) =   0
                l(2) =   0
     Q(r) pseudized with  8 coefficients,  rinner =    0.700

     atomic species   valence    mass     pseudopotential
        Ca            10.00    40.07800     Ca( 1.00)
        H              1.00     1.00794     H ( 1.00)

     48 Sym. Ops., with inversion, found



   Cartesian axes

     site n.     atom                  positions (alat units)
         1           Ca  tau(   1) = (   0.0000000   0.0000000   0.0000000  )
         2           H   tau(   2) = (   0.2886751   0.0000000   0.5773503  )
         3           H   tau(   3) = (   0.2886751   0.5773503   0.0000000  )
         4           H   tau(   4) = (   0.5773503   0.2886751   0.0000000  )
         5           H   tau(   5) = (   0.0000000   0.2886751   0.5773503  )
         6           H   tau(   6) = (   0.0000000   0.5773503   0.2886751  )
         7           H   tau(   7) = (   0.5773503   0.0000000   0.2886751  )

     number of k points= 17440  Methfessel-Paxton smearing, width (Ry)=  0.0200

     Number of k-points >= 100: set verbosity='high' to print them.

     Dense  grid:    43227 G-vectors     FFT dimensions: (  48,  48,  48)

     Smooth grid:     8391 G-vectors     FFT dimensions: (  27,  27,  27)

     Estimated max dynamical RAM per process >       8.31 MB

     Estimated total dynamical RAM >     399.10 MB

     The potential is recalculated from file :
     ./tmp/_ph0/Ca1H6.q_3/Ca1H6.save/charge-density

     Starting wfcs are   16 atomic wfcs

     Band Structure Calculation
     Davidson diagonalization with overlap

     ethr =  6.25E-11,  avg # of iterations = 15.1

     total cpu time spent up to now is      101.5 secs

     End of band structure calculation

     Number of k-points >= 100: set verbosity='high' to print the bands.

     the Fermi energy is    17.1467 ev

     Writing output data file ./tmp/_ph0/Ca1H6.q_3/Ca1H6.save/

     Electron-phonon coefficients for Ca1H6                                     

     bravais-lattice index     =            0
     lattice parameter (alat)  =       5.5613  a.u.
     unit-cell volume          =     132.4087 (a.u.)^3
     number of atoms/cell      =            7
     number of atomic types    =            2
     kinetic-energy cut-off    =      60.0000  Ry
     charge density cut-off    =     720.0000  Ry
     convergence threshold     =      1.0E-16
     beta                      =       0.7000
     number of iterations used =            4
     Exchange-correlation= PBE
                           (   1   4   3   4   0   0   0)


     celldm(1)=    5.56134  celldm(2)=    0.00000  celldm(3)=    0.00000
     celldm(4)=    0.00000  celldm(5)=    0.00000  celldm(6)=    0.00000

     crystal axes: (cart. coord. in units of alat)
               a(1) = ( -0.5774  0.5774  0.5774 )  
               a(2) = (  0.5774 -0.5774  0.5774 )  
               a(3) = (  0.5774  0.5774 -0.5774 )  

     reciprocal axes: (cart. coord. in units 2 pi/alat)
               b(1) = ( -0.0000  0.8660  0.8660 )  
               b(2) = (  0.8660 -0.0000  0.8660 )  
               b(3) = (  0.8660  0.8660  0.0000 )  


     Atoms inside the unit cell: 

     Cartesian axes

     site n.  atom      mass           positions (alat units)
        1     Ca  40.0780   tau(    1) = (    0.00000    0.00000    0.00000  )
        2     H    1.0079   tau(    2) = (    0.28868    0.00000    0.57735  )
        3     H    1.0079   tau(    3) = (    0.28868    0.57735    0.00000  )
        4     H    1.0079   tau(    4) = (    0.57735    0.28868    0.00000  )
        5     H    1.0079   tau(    5) = (    0.00000    0.28868    0.57735  )
        6     H    1.0079   tau(    6) = (    0.00000    0.57735    0.28868  )
        7     H    1.0079   tau(    7) = (    0.57735    0.00000    0.28868  )

     Computing dynamical matrix for 
                    q = (   0.2165064   0.2165064   0.0000000 )
 
      4 Sym.Ops. (no q -> -q+G )


     G cutoff =  564.0682  (   3604 G-vectors)     FFT grid: ( 48, 48, 48)
     G cutoff =  188.0227  (    699 G-vectors)  smooth grid: ( 27, 27, 27)

     number of k points= 17440  Methfessel-Paxton smearing, width (Ry)=  0.0200

     PseudoPot. # 1 for Ca read from file:
     /work/home/mayuan/code/my_script/scripts_tests/out2/200.0/pp/ca_pbe_v1.uspp.F.UPF
     MD5 check sum: 403a4c14b9e4d4dfdc3024c9a3812218
     Pseudo is Ultrasoft + core correction, Zval = 10.0
     Generated by new atomic code, or converted to UPF format
     Using radial grid of  845 points,  6 beta functions with: 
                l(1) =   0
                l(2) =   0
                l(3) =   1
                l(4) =   1
                l(5) =   2
                l(6) =   2
     Q(r) pseudized with  8 coefficients,  rinner =    1.500   1.500   1.500
                                                       1.500   1.500

     PseudoPot. # 2 for H  read from file:
     /work/home/mayuan/code/my_script/scripts_tests/out2/200.0/pp/h_pbe_v1.uspp.F.UPF
     MD5 check sum: 3408e3ff4ec8b0a4e358431e7e038a48
     Pseudo is Ultrasoft, Zval =  1.0
     Generated by new atomic code, or converted to UPF format
     Using radial grid of  615 points,  2 beta functions with: 
                l(1) =   0
                l(2) =   0
     Q(r) pseudized with  8 coefficients,  rinner =    0.700

     Mode symmetry, C_2v (mm2)  point group:


     Atomic displacements:
     There are   21 irreducible representations

     Representation     1      1 modes -  To be done

     Representation     2      1 modes -  To be done

     Representation     3      1 modes -  To be done

     Representation     4      1 modes -  To be done

     Representation     5      1 modes -  To be done

     Representation     6      1 modes -  To be done

     Representation     7      1 modes -  To be done

     Representation     8      1 modes -  To be done

     Representation     9      1 modes -  To be done

     Representation    10      1 modes -  To be done

     Representation    11      1 modes -  To be done

     Representation    12      1 modes -  To be done

     Representation    13      1 modes -  To be done

     Representation    14      1 modes -  To be done

     Representation    15      1 modes -  To be done

     Representation    16      1 modes -  To be done

     Representation    17      1 modes -  To be done

     Representation    18      1 modes -  To be done

     Representation    19      1 modes -  To be done

     Representation    20      1 modes -  To be done

     Representation    21      1 modes -  To be done



     Alpha used in Ewald sum =   2.8000
     PHONON       :   2m31.00s CPU   2m50.87s WALL



     Representation #   1 mode #   1

     Self-consistent Calculation

      iter #   1 total cpu time :   208.6 secs   av.it.:   7.2
      thresh= 1.000E-02 alpha_mix =  0.700 |ddv_scf|^2 =  6.685E-03

      iter #   2 total cpu time :   285.9 secs   av.it.:   8.7
      thresh= 8.176E-03 alpha_mix =  0.700 |ddv_scf|^2 =  2.718E-01

      iter #   3 total cpu time :   357.0 secs   av.it.:   8.4
      thresh= 1.000E-02 alpha_mix =  0.700 |ddv_scf|^2 =  4.092E-06

      iter #   4 total cpu time :   435.2 secs   av.it.:   9.6
      thresh= 2.023E-04 alpha_mix =  0.700 |ddv_scf|^2 =  1.316E-06

      iter #   5 total cpu time :   512.4 secs   av.it.:   8.9
      thresh= 1.147E-04 alpha_mix =  0.700 |ddv_scf|^2 =  6.239E-09

      iter #   6 total cpu time :   594.2 secs   av.it.:   8.5
      thresh= 7.899E-06 alpha_mix =  0.700 |ddv_scf|^2 =  3.510E-10

      iter #   7 total cpu time :   683.6 secs   av.it.:   8.5
      thresh= 1.873E-06 alpha_mix =  0.700 |ddv_scf|^2 =  1.392E-12

      iter #   8 total cpu time :   776.6 secs   av.it.:   9.7
      thresh= 1.180E-07 alpha_mix =  0.700 |ddv_scf|^2 =  9.626E-13

      iter #   9 total cpu time :   862.5 secs   av.it.:   8.7
      thresh= 9.811E-08 alpha_mix =  0.700 |ddv_scf|^2 =  3.080E-12

      iter #  10 total cpu time :   945.2 secs   av.it.:   6.8
      thresh= 1.755E-07 alpha_mix =  0.700 |ddv_scf|^2 =  1.306E-14

      iter #  11 total cpu time :  1031.2 secs   av.it.:   8.9
      thresh= 1.143E-08 alpha_mix =  0.700 |ddv_scf|^2 =  1.140E-15

      iter #  12 total cpu time :  1122.2 secs   av.it.:   9.2
      thresh= 3.376E-09 alpha_mix =  0.700 |ddv_scf|^2 =  6.749E-17

     End of self-consistent calculation

     Convergence has been achieved 


     Representation #   2 mode #   2

     Self-consistent Calculation

      iter #   1 total cpu time :  1173.9 secs   av.it.:   4.4
      thresh= 1.000E-02 alpha_mix =  0.700 |ddv_scf|^2 =  5.688E-05

      iter #   2 total cpu time :  1241.8 secs   av.it.:   8.7
      thresh= 7.542E-04 alpha_mix =  0.700 |ddv_scf|^2 =  2.287E-03

      iter #   3 total cpu time :  1310.6 secs   av.it.:   6.6
      thresh= 4.782E-03 alpha_mix =  0.700 |ddv_scf|^2 =  3.017E-08

      iter #   4 total cpu time :  1389.8 secs   av.it.:   9.8
      thresh= 1.737E-05 alpha_mix =  0.700 |ddv_scf|^2 =  4.889E-09

      iter #   5 total cpu time :  1478.9 secs   av.it.:   9.4
      thresh= 6.992E-06 alpha_mix =  0.700 |ddv_scf|^2 =  1.911E-11

      iter #   6 total cpu time :  1568.6 secs   av.it.:   9.6
      thresh= 4.372E-07 alpha_mix =  0.700 |ddv_scf|^2 =  3.100E-10

      iter #   7 total cpu time :  1658.6 secs   av.it.:   6.8
      thresh= 1.761E-06 alpha_mix =  0.700 |ddv_scf|^2 =  1.463E-12

      iter #   8 total cpu time :  1752.4 secs   av.it.:   9.6
      thresh= 1.209E-07 alpha_mix =  0.700 |ddv_scf|^2 =  1.263E-12

      iter #   9 total cpu time :  1847.2 secs   av.it.:   8.2
      thresh= 1.124E-07 alpha_mix =  0.700 |ddv_scf|^2 =  1.623E-12

      iter #  10 total cpu time :  1943.1 secs   av.it.:   7.6
      thresh= 1.274E-07 alpha_mix =  0.700 |ddv_scf|^2 =  1.419E-15

      iter #  11 total cpu time :  2037.4 secs   av.it.:   9.3
      thresh= 3.768E-09 alpha_mix =  0.700 |ddv_scf|^2 =  1.811E-16

      iter #  12 total cpu time :  2140.2 secs   av.it.:   9.5
      thresh= 1.346E-09 alpha_mix =  0.700 |ddv_scf|^2 =  1.612E-16

      iter #  13 total cpu time :  2244.8 secs   av.it.:   8.4
      thresh= 1.270E-09 alpha_mix =  0.700 |ddv_scf|^2 =  3.559E-17

     End of self-consistent calculation

     Convergence has been achieved 


     Representation #   3 mode #   3

     Self-consistent Calculation

      iter #   1 total cpu time :  2313.1 secs   av.it.:   4.4
      thresh= 1.000E-02 alpha_mix =  0.700 |ddv_scf|^2 =  8.675E-05

      iter #   2 total cpu time :  2393.3 secs   av.it.:   8.7
      thresh= 9.314E-04 alpha_mix =  0.700 |ddv_scf|^2 =  3.497E-03

      iter #   3 total cpu time :  2467.2 secs   av.it.:   6.6
      thresh= 5.914E-03 alpha_mix =  0.700 |ddv_scf|^2 =  3.249E-08

      iter #   4 total cpu time :  2549.8 secs   av.it.:   9.8
      thresh= 1.803E-05 alpha_mix =  0.700 |ddv_scf|^2 =  6.215E-09

      iter #   5 total cpu time :  2638.9 secs   av.it.:   9.4
      thresh= 7.884E-06 alpha_mix =  0.700 |ddv_scf|^2 =  3.505E-11

      iter #   6 total cpu time :  2731.7 secs   av.it.:   9.6
      thresh= 5.920E-07 alpha_mix =  0.700 |ddv_scf|^2 =  1.680E-10

      iter #   7 total cpu time :  2822.4 secs   av.it.:   7.3
      thresh= 1.296E-06 alpha_mix =  0.700 |ddv_scf|^2 =  6.505E-11

      iter #   8 total cpu time :  2913.3 secs   av.it.:   7.7
      thresh= 8.065E-07 alpha_mix =  0.700 |ddv_scf|^2 =  6.225E-12

      iter #   9 total cpu time :  3010.8 secs   av.it.:   8.2
      thresh= 2.495E-07 alpha_mix =  0.700 |ddv_scf|^2 =  1.850E-11

      iter #  10 total cpu time :  3113.7 secs   av.it.:   7.6
      thresh= 4.302E-07 alpha_mix =  0.700 |ddv_scf|^2 =  5.234E-15

      iter #  11 total cpu time :  3225.6 secs   av.it.:   9.5
      thresh= 7.235E-09 alpha_mix =  0.700 |ddv_scf|^2 =  7.656E-16

      iter #  12 total cpu time :  3328.3 secs   av.it.:   9.3
      thresh= 2.767E-09 alpha_mix =  0.700 |ddv_scf|^2 =  2.453E-17

     End of self-consistent calculation

     Convergence has been achieved 


     Representation #   4 mode #   4

     Self-consistent Calculation

      iter #   1 total cpu time :  3392.6 secs   av.it.:   4.3
      thresh= 1.000E-02 alpha_mix =  0.700 |ddv_scf|^2 =  1.276E-04

      iter #   2 total cpu time :  3470.4 secs   av.it.:   8.7
      thresh= 1.130E-03 alpha_mix =  0.700 |ddv_scf|^2 =  5.107E-03

      iter #   3 total cpu time :  3552.3 secs   av.it.:   6.6
      thresh= 7.146E-03 alpha_mix =  0.700 |ddv_scf|^2 =  1.356E-07

      iter #   4 total cpu time :  3632.2 secs   av.it.:   9.3
      thresh= 3.682E-05 alpha_mix =  0.700 |ddv_scf|^2 =  1.907E-08

      iter #   5 total cpu time :  3715.8 secs   av.it.:   8.9
      thresh= 1.381E-05 alpha_mix =  0.700 |ddv_scf|^2 =  2.122E-11

      iter #   6 total cpu time :  3805.5 secs   av.it.:   9.6
      thresh= 4.607E-07 alpha_mix =  0.700 |ddv_scf|^2 =  3.168E-12

      iter #   7 total cpu time :  3897.5 secs   av.it.:   9.3
      thresh= 1.780E-07 alpha_mix =  0.700 |ddv_scf|^2 =  1.941E-14

      iter #   8 total cpu time :  3990.8 secs   av.it.:   9.5
      thresh= 1.393E-08 alpha_mix =  0.700 |ddv_scf|^2 =  5.774E-15

      iter #   9 total cpu time :  4101.4 secs   av.it.:   8.8
      thresh= 7.599E-09 alpha_mix =  0.700 |ddv_scf|^2 =  1.005E-13

      iter #  10 total cpu time :  4198.4 secs   av.it.:   7.1
      thresh= 3.170E-08 alpha_mix =  0.700 |ddv_scf|^2 =  3.920E-15

      iter #  11 total cpu time :  4296.7 secs   av.it.:   7.3
      thresh= 6.261E-09 alpha_mix =  0.700 |ddv_scf|^2 =  3.656E-16

      iter #  12 total cpu time :  4397.1 secs   av.it.:   8.0
      thresh= 1.912E-09 alpha_mix =  0.700 |ddv_scf|^2 =  1.849E-18

     End of self-consistent calculation

     Convergence has been achieved 


     Representation #   5 mode #   5

     Self-consistent Calculation

      iter #   1 total cpu time :  4464.2 secs   av.it.:   4.3
      thresh= 1.000E-02 alpha_mix =  0.700 |ddv_scf|^2 =  4.590E-05

      iter #   2 total cpu time :  4540.2 secs   av.it.:   8.7
      thresh= 6.775E-04 alpha_mix =  0.700 |ddv_scf|^2 =  1.840E-03

      iter #   3 total cpu time :  4620.0 secs   av.it.:   6.6
      thresh= 4.290E-03 alpha_mix =  0.700 |ddv_scf|^2 =  3.071E-08

      iter #   4 total cpu time :  4709.2 secs   av.it.:   9.7
      thresh= 1.752E-05 alpha_mix =  0.700 |ddv_scf|^2 =  3.590E-09

      iter #   5 total cpu time :  4812.4 secs   av.it.:   9.4
      thresh= 5.991E-06 alpha_mix =  0.700 |ddv_scf|^2 =  3.703E-11

      iter #   6 total cpu time :  4919.7 secs   av.it.:   9.7
      thresh= 6.085E-07 alpha_mix =  0.700 |ddv_scf|^2 =  4.041E-11

      iter #   7 total cpu time :  5029.9 secs   av.it.:   8.2
      thresh= 6.357E-07 alpha_mix =  0.700 |ddv_scf|^2 =  1.677E-10

      iter #   8 total cpu time :  5131.7 secs   av.it.:   7.5
      thresh= 1.295E-06 alpha_mix =  0.700 |ddv_scf|^2 =  1.511E-11

      iter #   9 total cpu time :  5227.4 secs   av.it.:   7.5
      thresh= 3.887E-07 alpha_mix =  0.700 |ddv_scf|^2 =  4.179E-12

      iter #  10 total cpu time :  5325.9 secs   av.it.:   7.8
      thresh= 2.044E-07 alpha_mix =  0.700 |ddv_scf|^2 =  1.256E-14

      iter #  11 total cpu time :  5417.2 secs   av.it.:   9.7
      thresh= 1.121E-08 alpha_mix =  0.700 |ddv_scf|^2 =  2.583E-15

      iter #  12 total cpu time :  5516.2 secs   av.it.:   9.3
      thresh= 5.082E-09 alpha_mix =  0.700 |ddv_scf|^2 =  6.102E-17

     End of self-consistent calculation

     Convergence has been achieved 


     Representation #   6 mode #   6

     Self-consistent Calculation

      iter #   1 total cpu time :  5580.8 secs   av.it.:   4.3
      thresh= 1.000E-02 alpha_mix =  0.700 |ddv_scf|^2 =  7.576E-05

      iter #   2 total cpu time :  5654.2 secs   av.it.:   8.7
      thresh= 8.704E-04 alpha_mix =  0.700 |ddv_scf|^2 =  3.051E-03

      iter #   3 total cpu time :  5734.9 secs   av.it.:   6.6
      thresh= 5.524E-03 alpha_mix =  0.700 |ddv_scf|^2 =  2.991E-08

      iter #   4 total cpu time :  5833.6 secs   av.it.:   9.7
      thresh= 1.729E-05 alpha_mix =  0.700 |ddv_scf|^2 =  4.556E-09

      iter #   5 total cpu time :  5945.0 secs   av.it.:   9.3
      thresh= 6.750E-06 alpha_mix =  0.700 |ddv_scf|^2 =  3.558E-11

      iter #   6 total cpu time :  6044.9 secs   av.it.:   9.7
      thresh= 5.965E-07 alpha_mix =  0.700 |ddv_scf|^2 =  3.225E-11

      iter #   7 total cpu time :  6141.3 secs   av.it.:   8.3
      thresh= 5.679E-07 alpha_mix =  0.700 |ddv_scf|^2 =  2.001E-10

      iter #   8 total cpu time :  6243.2 secs   av.it.:   7.2
      thresh= 1.414E-06 alpha_mix =  0.700 |ddv_scf|^2 =  8.871E-12

      iter #   9 total cpu time :  6339.7 secs   av.it.:   7.9
      thresh= 2.978E-07 alpha_mix =  0.700 |ddv_scf|^2 =  1.585E-11

      iter #  10 total cpu time :  6444.8 secs   av.it.:   7.5
      thresh= 3.982E-07 alpha_mix =  0.700 |ddv_scf|^2 =  6.737E-15

      iter #  11 total cpu time :  6546.9 secs   av.it.:   9.6
      thresh= 8.208E-09 alpha_mix =  0.700 |ddv_scf|^2 =  1.369E-15

      iter #  12 total cpu time :  6651.0 secs   av.it.:   9.1
      thresh= 3.700E-09 alpha_mix =  0.700 |ddv_scf|^2 =  3.115E-17

     End of self-consistent calculation

     Convergence has been achieved 


     Representation #   7 mode #   7

     Self-consistent Calculation

      iter #   1 total cpu time :  6719.0 secs   av.it.:   3.7
      thresh= 1.000E-02 alpha_mix =  0.700 |ddv_scf|^2 =  8.137E-08

      iter #   2 total cpu time :  6798.1 secs   av.it.:   9.1
      thresh= 2.852E-05 alpha_mix =  0.700 |ddv_scf|^2 =  3.154E-09

      iter #   3 total cpu time :  6900.3 secs   av.it.:   9.1
      thresh= 5.616E-06 alpha_mix =  0.700 |ddv_scf|^2 =  9.146E-11

      iter #   4 total cpu time :  7000.5 secs   av.it.:   8.9
      thresh= 9.563E-07 alpha_mix =  0.700 |ddv_scf|^2 =  1.582E-12

      iter #   5 total cpu time :  7100.8 secs   av.it.:   8.6
      thresh= 1.258E-07 alpha_mix =  0.700 |ddv_scf|^2 =  5.805E-15

      iter #   6 total cpu time :  7201.8 secs   av.it.:   9.5
      thresh= 7.619E-09 alpha_mix =  0.700 |ddv_scf|^2 =  5.157E-17

     End of self-consistent calculation

     Convergence has been achieved 


     Representation #   8 mode #   8

     Self-consistent Calculation

      iter #   1 total cpu time :  7267.5 secs   av.it.:   3.7
      thresh= 1.000E-02 alpha_mix =  0.700 |ddv_scf|^2 =  8.137E-08

      iter #   2 total cpu time :  7355.2 secs   av.it.:   9.1
      thresh= 2.852E-05 alpha_mix =  0.700 |ddv_scf|^2 =  3.154E-09

      iter #   3 total cpu time :  7451.0 secs   av.it.:   9.1
      thresh= 5.616E-06 alpha_mix =  0.700 |ddv_scf|^2 =  9.146E-11

      iter #   4 total cpu time :  7553.7 secs   av.it.:   8.9
      thresh= 9.563E-07 alpha_mix =  0.700 |ddv_scf|^2 =  1.582E-12

      iter #   5 total cpu time :  7661.4 secs   av.it.:   8.6
      thresh= 1.258E-07 alpha_mix =  0.700 |ddv_scf|^2 =  5.805E-15

      iter #   6 total cpu time :  7772.7 secs   av.it.:   9.5
      thresh= 7.619E-09 alpha_mix =  0.700 |ddv_scf|^2 =  5.157E-17

     End of self-consistent calculation

     Convergence has been achieved 


     Representation #   9 mode #   9

     Self-consistent Calculation

      iter #   1 total cpu time :  7845.1 secs   av.it.:   3.6
      thresh= 1.000E-02 alpha_mix =  0.700 |ddv_scf|^2 =  3.899E-08

      iter #   2 total cpu time :  7933.0 secs   av.it.:   9.0
      thresh= 1.975E-05 alpha_mix =  0.700 |ddv_scf|^2 =  9.471E-10

      iter #   3 total cpu time :  8024.3 secs   av.it.:   9.0
      thresh= 3.078E-06 alpha_mix =  0.700 |ddv_scf|^2 =  5.963E-11

      iter #   4 total cpu time :  8116.5 secs   av.it.:   8.8
      thresh= 7.722E-07 alpha_mix =  0.700 |ddv_scf|^2 =  2.294E-12

      iter #   5 total cpu time :  8217.5 secs   av.it.:   8.5
      thresh= 1.515E-07 alpha_mix =  0.700 |ddv_scf|^2 =  9.573E-15

      iter #   6 total cpu time :  8326.3 secs   av.it.:   9.3
      thresh= 9.784E-09 alpha_mix =  0.700 |ddv_scf|^2 =  7.155E-17

     End of self-consistent calculation

     Convergence has been achieved 


     Representation #  10 mode #  10

     Self-consistent Calculation

      iter #   1 total cpu time :  8391.3 secs   av.it.:   3.5
      thresh= 1.000E-02 alpha_mix =  0.700 |ddv_scf|^2 =  3.808E-08

      iter #   2 total cpu time :  8481.9 secs   av.it.:   9.5
      thresh= 1.951E-05 alpha_mix =  0.700 |ddv_scf|^2 =  2.077E-09

      iter #   3 total cpu time :  8572.3 secs   av.it.:   9.6
      thresh= 4.558E-06 alpha_mix =  0.700 |ddv_scf|^2 =  1.328E-10

      iter #   4 total cpu time :  8665.4 secs   av.it.:   9.4
      thresh= 1.152E-06 alpha_mix =  0.700 |ddv_scf|^2 =  3.696E-12

      iter #   5 total cpu time :  8760.5 secs   av.it.:   9.4
      thresh= 1.923E-07 alpha_mix =  0.700 |ddv_scf|^2 =  6.913E-14

      iter #   6 total cpu time :  8859.7 secs   av.it.:   9.7
      thresh= 2.629E-08 alpha_mix =  0.700 |ddv_scf|^2 =  1.986E-15

      iter #   7 total cpu time :  8959.7 secs   av.it.:   9.6
      thresh= 4.457E-09 alpha_mix =  0.700 |ddv_scf|^2 =  3.341E-17

     End of self-consistent calculation

     Convergence has been achieved 


     Representation #  11 mode #  11

     Self-consistent Calculation

      iter #   1 total cpu time :  9026.4 secs   av.it.:   4.0
      thresh= 1.000E-02 alpha_mix =  0.700 |ddv_scf|^2 =  1.320E-07

      iter #   2 total cpu time :  9111.7 secs   av.it.:   9.4
      thresh= 3.634E-05 alpha_mix =  0.700 |ddv_scf|^2 =  8.198E-09

      iter #   3 total cpu time :  9207.7 secs   av.it.:   9.6
      thresh= 9.054E-06 alpha_mix =  0.700 |ddv_scf|^2 =  2.231E-10

      iter #   4 total cpu time :  9309.8 secs   av.it.:   9.5
      thresh= 1.494E-06 alpha_mix =  0.700 |ddv_scf|^2 =  7.692E-12

      iter #   5 total cpu time :  9420.0 secs   av.it.:   9.5
      thresh= 2.774E-07 alpha_mix =  0.700 |ddv_scf|^2 =  1.703E-13

      iter #   6 total cpu time :  9529.6 secs   av.it.:   9.6
      thresh= 4.127E-08 alpha_mix =  0.700 |ddv_scf|^2 =  4.369E-15

      iter #   7 total cpu time :  9640.0 secs   av.it.:   9.5
      thresh= 6.610E-09 alpha_mix =  0.700 |ddv_scf|^2 =  5.906E-17

     End of self-consistent calculation

     Convergence has been achieved 


     Representation #  12 mode #  12

     Self-consistent Calculation

      iter #   1 total cpu time :  9708.5 secs   av.it.:   3.4
      thresh= 1.000E-02 alpha_mix =  0.700 |ddv_scf|^2 =  3.824E-08

      iter #   2 total cpu time :  9789.1 secs   av.it.:   9.6
      thresh= 1.956E-05 alpha_mix =  0.700 |ddv_scf|^2 =  2.295E-09

      iter #   3 total cpu time :  9874.7 secs   av.it.:   9.6
      thresh= 4.790E-06 alpha_mix =  0.700 |ddv_scf|^2 =  1.281E-10

      iter #   4 total cpu time :  9975.5 secs   av.it.:   9.4
      thresh= 1.132E-06 alpha_mix =  0.700 |ddv_scf|^2 =  3.588E-12

      iter #   5 total cpu time : 10072.3 secs   av.it.:   9.4
      thresh= 1.894E-07 alpha_mix =  0.700 |ddv_scf|^2 =  6.510E-14

      iter #   6 total cpu time : 10175.7 secs   av.it.:   9.7
      thresh= 2.551E-08 alpha_mix =  0.700 |ddv_scf|^2 =  1.710E-15

      iter #   7 total cpu time : 10275.8 secs   av.it.:   9.5
      thresh= 4.136E-09 alpha_mix =  0.700 |ddv_scf|^2 =  3.190E-17

     End of self-consistent calculation

     Convergence has been achieved 


     Representation #  13 mode #  13

     Self-consistent Calculation

      iter #   1 total cpu time : 10348.0 secs   av.it.:   3.5
      thresh= 1.000E-02 alpha_mix =  0.700 |ddv_scf|^2 =  3.725E-08

      iter #   2 total cpu time : 10436.5 secs   av.it.:   9.6
      thresh= 1.930E-05 alpha_mix =  0.700 |ddv_scf|^2 =  2.555E-09

      iter #   3 total cpu time : 10535.8 secs   av.it.:   9.6
      thresh= 5.055E-06 alpha_mix =  0.700 |ddv_scf|^2 =  1.438E-10

      iter #   4 total cpu time : 10638.6 secs   av.it.:   9.4
      thresh= 1.199E-06 alpha_mix =  0.700 |ddv_scf|^2 =  3.242E-12

      iter #   5 total cpu time : 10750.5 secs   av.it.:   9.5
      thresh= 1.801E-07 alpha_mix =  0.700 |ddv_scf|^2 =  8.519E-14

      iter #   6 total cpu time : 10865.6 secs   av.it.:   9.6
      thresh= 2.919E-08 alpha_mix =  0.700 |ddv_scf|^2 =  9.292E-16

      iter #   7 total cpu time : 10972.9 secs   av.it.:   9.4
      thresh= 3.048E-09 alpha_mix =  0.700 |ddv_scf|^2 =  4.152E-17

     End of self-consistent calculation

     Convergence has been achieved 


     Representation #  14 mode #  14

     Self-consistent Calculation

      iter #   1 total cpu time : 11043.3 secs   av.it.:   3.9
      thresh= 1.000E-02 alpha_mix =  0.700 |ddv_scf|^2 =  9.910E-08

      iter #   2 total cpu time : 11137.6 secs   av.it.:   9.5
      thresh= 3.148E-05 alpha_mix =  0.700 |ddv_scf|^2 =  5.135E-09

      iter #   3 total cpu time : 11236.3 secs   av.it.:   9.6
      thresh= 7.166E-06 alpha_mix =  0.700 |ddv_scf|^2 =  1.743E-10

      iter #   4 total cpu time : 11325.5 secs   av.it.:   9.6
      thresh= 1.320E-06 alpha_mix =  0.700 |ddv_scf|^2 =  7.931E-12

      iter #   5 total cpu time : 11427.7 secs   av.it.:   9.6
      thresh= 2.816E-07 alpha_mix =  0.700 |ddv_scf|^2 =  2.112E-13

      iter #   6 total cpu time : 11537.1 secs   av.it.:   9.5
      thresh= 4.595E-08 alpha_mix =  0.700 |ddv_scf|^2 =  2.159E-15

      iter #   7 total cpu time : 11636.3 secs   av.it.:   9.5
      thresh= 4.647E-09 alpha_mix =  0.700 |ddv_scf|^2 =  5.620E-17

     End of self-consistent calculation

     Convergence has been achieved 


     Representation #  15 mode #  15

     Self-consistent Calculation

      iter #   1 total cpu time : 11716.1 secs   av.it.:   6.4
      thresh= 1.000E-02 alpha_mix =  0.700 |ddv_scf|^2 =  9.097E-06

      iter #   2 total cpu time : 11796.3 secs   av.it.:   9.6
      thresh= 3.016E-04 alpha_mix =  0.700 |ddv_scf|^2 =  1.011E-06

      iter #   3 total cpu time : 11884.6 secs   av.it.:   9.5
      thresh= 1.006E-04 alpha_mix =  0.700 |ddv_scf|^2 =  4.095E-09

      iter #   4 total cpu time : 11976.1 secs   av.it.:   9.3
      thresh= 6.399E-06 alpha_mix =  0.700 |ddv_scf|^2 =  1.306E-10

      iter #   5 total cpu time : 12067.2 secs   av.it.:   9.3
      thresh= 1.143E-06 alpha_mix =  0.700 |ddv_scf|^2 =  1.594E-12

      iter #   6 total cpu time : 12166.2 secs   av.it.:   9.3
      thresh= 1.263E-07 alpha_mix =  0.700 |ddv_scf|^2 =  9.142E-15

      iter #   7 total cpu time : 12273.1 secs   av.it.:   8.9
      thresh= 9.562E-09 alpha_mix =  0.700 |ddv_scf|^2 =  5.625E-16

      iter #   8 total cpu time : 12373.2 secs   av.it.:   9.3
      thresh= 2.372E-09 alpha_mix =  0.700 |ddv_scf|^2 =  4.770E-18

     End of self-consistent calculation

     Convergence has been achieved 


     Representation #  16 mode #  16

     Self-consistent Calculation

      iter #   1 total cpu time : 12436.8 secs   av.it.:   3.6
      thresh= 1.000E-02 alpha_mix =  0.700 |ddv_scf|^2 =  3.707E-08

      iter #   2 total cpu time : 12515.9 secs   av.it.:   9.6
      thresh= 1.925E-05 alpha_mix =  0.700 |ddv_scf|^2 =  2.340E-09

      iter #   3 total cpu time : 12608.0 secs   av.it.:   9.6
      thresh= 4.838E-06 alpha_mix =  0.700 |ddv_scf|^2 =  1.497E-10

      iter #   4 total cpu time : 12699.9 secs   av.it.:   9.4
      thresh= 1.224E-06 alpha_mix =  0.700 |ddv_scf|^2 =  3.249E-12

      iter #   5 total cpu time : 12794.3 secs   av.it.:   9.5
      thresh= 1.802E-07 alpha_mix =  0.700 |ddv_scf|^2 =  8.917E-14

      iter #   6 total cpu time : 12890.4 secs   av.it.:   9.7
      thresh= 2.986E-08 alpha_mix =  0.700 |ddv_scf|^2 =  1.566E-15

      iter #   7 total cpu time : 12996.0 secs   av.it.:   9.5
      thresh= 3.957E-09 alpha_mix =  0.700 |ddv_scf|^2 =  4.255E-17

     End of self-consistent calculation

     Convergence has been achieved 


     Representation #  17 mode #  17

     Self-consistent Calculation

      iter #   1 total cpu time : 13065.2 secs   av.it.:   4.0
      thresh= 1.000E-02 alpha_mix =  0.700 |ddv_scf|^2 =  9.181E-08

      iter #   2 total cpu time : 13143.5 secs   av.it.:   9.5
      thresh= 3.030E-05 alpha_mix =  0.700 |ddv_scf|^2 =  5.437E-09

      iter #   3 total cpu time : 13231.2 secs   av.it.:   9.6
      thresh= 7.374E-06 alpha_mix =  0.700 |ddv_scf|^2 =  2.765E-10

      iter #   4 total cpu time : 13327.2 secs   av.it.:   9.5
      thresh= 1.663E-06 alpha_mix =  0.700 |ddv_scf|^2 =  4.827E-12

      iter #   5 total cpu time : 13431.3 secs   av.it.:   9.2
      thresh= 2.197E-07 alpha_mix =  0.700 |ddv_scf|^2 =  3.133E-14

      iter #   6 total cpu time : 13531.8 secs   av.it.:   9.5
      thresh= 1.770E-08 alpha_mix =  0.700 |ddv_scf|^2 =  2.776E-16

      iter #   7 total cpu time : 13632.5 secs   av.it.:   9.2
      thresh= 1.666E-09 alpha_mix =  0.700 |ddv_scf|^2 =  1.183E-17

     End of self-consistent calculation

     Convergence has been achieved 


     Representation #  18 mode #  18

     Self-consistent Calculation

      iter #   1 total cpu time : 13701.0 secs   av.it.:   3.5
      thresh= 1.000E-02 alpha_mix =  0.700 |ddv_scf|^2 =  3.221E-08

      iter #   2 total cpu time : 13789.9 secs   av.it.:   9.5
      thresh= 1.795E-05 alpha_mix =  0.700 |ddv_scf|^2 =  1.647E-09

      iter #   3 total cpu time : 13893.1 secs   av.it.:   9.6
      thresh= 4.058E-06 alpha_mix =  0.700 |ddv_scf|^2 =  1.426E-10

      iter #   4 total cpu time : 14001.8 secs   av.it.:   9.5
      thresh= 1.194E-06 alpha_mix =  0.700 |ddv_scf|^2 =  3.569E-12

      iter #   5 total cpu time : 14104.7 secs   av.it.:   9.4
      thresh= 1.889E-07 alpha_mix =  0.700 |ddv_scf|^2 =  1.586E-14

      iter #   6 total cpu time : 14215.2 secs   av.it.:   9.5
      thresh= 1.260E-08 alpha_mix =  0.700 |ddv_scf|^2 =  8.742E-17

     End of self-consistent calculation

     Convergence has been achieved 


     Representation #  19 mode #  19

     Self-consistent Calculation

      iter #   1 total cpu time : 14297.2 secs   av.it.:   6.4
      thresh= 1.000E-02 alpha_mix =  0.700 |ddv_scf|^2 =  1.089E-05

      iter #   2 total cpu time : 14393.0 secs   av.it.:   9.6
      thresh= 3.301E-04 alpha_mix =  0.700 |ddv_scf|^2 =  1.323E-06

      iter #   3 total cpu time : 14507.0 secs   av.it.:   9.4
      thresh= 1.150E-04 alpha_mix =  0.700 |ddv_scf|^2 =  3.204E-09

      iter #   4 total cpu time : 14622.2 secs   av.it.:   9.2
      thresh= 5.661E-06 alpha_mix =  0.700 |ddv_scf|^2 =  1.311E-11

      iter #   5 total cpu time : 14753.9 secs   av.it.:   9.5
      thresh= 3.620E-07 alpha_mix =  0.700 |ddv_scf|^2 =  1.707E-13

      iter #   6 total cpu time : 14864.7 secs   av.it.:   9.1
      thresh= 4.132E-08 alpha_mix =  0.700 |ddv_scf|^2 =  3.233E-15

      iter #   7 total cpu time : 14977.0 secs   av.it.:   9.3
      thresh= 5.686E-09 alpha_mix =  0.700 |ddv_scf|^2 =  3.915E-17

     End of self-consistent calculation

     Convergence has been achieved 


     Representation #  20 mode #  20

     Self-consistent Calculation

      iter #   1 total cpu time : 15056.9 secs   av.it.:   4.0
      thresh= 1.000E-02 alpha_mix =  0.700 |ddv_scf|^2 =  9.181E-08

      iter #   2 total cpu time : 15149.8 secs   av.it.:   9.5
      thresh= 3.030E-05 alpha_mix =  0.700 |ddv_scf|^2 =  5.437E-09

      iter #   3 total cpu time : 15259.5 secs   av.it.:   9.6
      thresh= 7.374E-06 alpha_mix =  0.700 |ddv_scf|^2 =  2.765E-10

      iter #   4 total cpu time : 15376.4 secs   av.it.:   9.5
      thresh= 1.663E-06 alpha_mix =  0.700 |ddv_scf|^2 =  4.827E-12

      iter #   5 total cpu time : 15506.9 secs   av.it.:   9.2
      thresh= 2.197E-07 alpha_mix =  0.700 |ddv_scf|^2 =  3.133E-14

      iter #   6 total cpu time : 15624.7 secs   av.it.:   9.5
      thresh= 1.770E-08 alpha_mix =  0.700 |ddv_scf|^2 =  2.776E-16

      iter #   7 total cpu time : 15743.0 secs   av.it.:   9.2
      thresh= 1.666E-09 alpha_mix =  0.700 |ddv_scf|^2 =  1.183E-17

     End of self-consistent calculation

     Convergence has been achieved 


     Representation #  21 mode #  21

     Self-consistent Calculation

      iter #   1 total cpu time : 15822.3 secs   av.it.:   3.8
      thresh= 1.000E-02 alpha_mix =  0.700 |ddv_scf|^2 =  6.155E-08

      iter #   2 total cpu time : 15917.9 secs   av.it.:   9.5
      thresh= 2.481E-05 alpha_mix =  0.700 |ddv_scf|^2 =  3.015E-09

      iter #   3 total cpu time : 16014.6 secs   av.it.:   9.6
      thresh= 5.491E-06 alpha_mix =  0.700 |ddv_scf|^2 =  1.920E-10

      iter #   4 total cpu time : 16109.3 secs   av.it.:   9.5
      thresh= 1.386E-06 alpha_mix =  0.700 |ddv_scf|^2 =  5.332E-12

      iter #   5 total cpu time : 16212.5 secs   av.it.:   9.2
      thresh= 2.309E-07 alpha_mix =  0.700 |ddv_scf|^2 =  1.242E-14

      iter #   6 total cpu time : 16307.5 secs   av.it.:   9.6
      thresh= 1.115E-08 alpha_mix =  0.700 |ddv_scf|^2 =  1.023E-16

      iter #   7 total cpu time : 16414.1 secs   av.it.:   9.1
      thresh= 1.011E-09 alpha_mix =  0.700 |ddv_scf|^2 =  4.668E-18

     End of self-consistent calculation

     Convergence has been achieved 
 
     Number of q in the star =   12
     List of q in the star:
          1   0.216506351   0.216506351   0.000000000
          2   0.216506351  -0.216506351   0.000000000
          3  -0.216506351  -0.216506351   0.000000000
          4  -0.216506351   0.216506351   0.000000000
          5   0.216506351   0.000000000  -0.216506351
          6  -0.216506351  -0.000000000   0.216506351
          7   0.216506351  -0.000000000   0.216506351
          8   0.000000000  -0.216506351  -0.216506351
          9   0.000000000   0.216506351  -0.216506351
         10  -0.000000000   0.216506351   0.216506351
         11  -0.000000000  -0.216506351   0.216506351
         12  -0.216506351   0.000000000  -0.216506351

     Diagonalizing the dynamical matrix

     q = (    0.216506351   0.216506351   0.000000000 ) 

 **************************************************************************
     freq (    1) =       6.475943 [THz] =     216.014198 [cm-1]
     freq (    2) =       8.041613 [THz] =     268.239331 [cm-1]
     freq (    3) =      12.169146 [THz] =     405.919010 [cm-1]
     freq (    4) =      30.536339 [THz] =    1018.582621 [cm-1]
     freq (    5) =      31.761884 [THz] =    1059.462406 [cm-1]
     freq (    6) =      32.149112 [THz] =    1072.378937 [cm-1]
     freq (    7) =      34.800072 [THz] =    1160.805458 [cm-1]
     freq (    8) =      37.729418 [THz] =    1258.517927 [cm-1]
     freq (    9) =      38.527769 [THz] =    1285.148055 [cm-1]
     freq (   10) =      39.368647 [THz] =    1313.196717 [cm-1]
     freq (   11) =      40.995347 [THz] =    1367.457567 [cm-1]
     freq (   12) =      42.179463 [THz] =    1406.955457 [cm-1]
     freq (   13) =      42.795970 [THz] =    1427.519889 [cm-1]
     freq (   14) =      43.181999 [THz] =    1440.396447 [cm-1]
     freq (   15) =      44.394012 [THz] =    1480.824851 [cm-1]
     freq (   16) =      44.644250 [THz] =    1489.171873 [cm-1]
     freq (   17) =      48.898485 [THz] =    1631.077903 [cm-1]
     freq (   18) =      49.836592 [THz] =    1662.369786 [cm-1]
     freq (   19) =      51.016019 [THz] =    1701.711227 [cm-1]
     freq (   20) =      59.374159 [THz] =    1980.508749 [cm-1]
     freq (   21) =      60.917619 [THz] =    2031.993046 [cm-1]
 **************************************************************************

     Mode symmetry, C_2v (mm2)  point group:

     freq (   1-   1) =        216.0  [cm-1]   --> B_2  D_4  S_4      
     freq (   2-   2) =        268.2  [cm-1]   --> B_1  D_3  S_3      
     freq (   3-   3) =        405.9  [cm-1]   --> A_1  D_1  S_1      
     freq (   4-   4) =       1018.6  [cm-1]   --> B_1  D_3  S_3      
     freq (   5-   5) =       1059.5  [cm-1]   --> A_2  D_2  S_2      
     freq (   6-   6) =       1072.4  [cm-1]   --> B_2  D_4  S_4      
     freq (   7-   7) =       1160.8  [cm-1]   --> A_1  D_1  S_1      
     freq (   8-   8) =       1258.5  [cm-1]   --> B_2  D_4  S_4      
     freq (   9-   9) =       1285.1  [cm-1]   --> B_1  D_3  S_3      
     freq (  10-  10) =       1313.2  [cm-1]   --> A_1  D_1  S_1      
     freq (  11-  11) =       1367.5  [cm-1]   --> B_2  D_4  S_4      
     freq (  12-  12) =       1407.0  [cm-1]   --> A_1  D_1  S_1      
     freq (  13-  13) =       1427.5  [cm-1]   --> B_1  D_3  S_3      
     freq (  14-  14) =       1440.4  [cm-1]   --> B_2  D_4  S_4      
     freq (  15-  15) =       1480.8  [cm-1]   --> A_2  D_2  S_2      
     freq (  16-  16) =       1489.2  [cm-1]   --> B_1  D_3  S_3      
     freq (  17-  17) =       1631.1  [cm-1]   --> A_1  D_1  S_1      
     freq (  18-  18) =       1662.4  [cm-1]   --> A_2  D_2  S_2      
     freq (  19-  19) =       1701.7  [cm-1]   --> B_1  D_3  S_3      
     freq (  20-  20) =       1980.5  [cm-1]   --> A_1  D_1  S_1      
     freq (  21-  21) =       2032.0  [cm-1]   --> B_1  D_3  S_3      
     electron-phonon interaction  ...

     Gaussian Broadening:   0.005 Ry, ngauss=   0
     DOS =  1.900675 states/spin/Ry/Unit Cell at Ef= 17.155196 eV
     lambda(    1)=  0.0019   gamma=    0.15 GHz
     lambda(    2)=  0.0041   gamma=    0.48 GHz
     lambda(    3)=  0.1409   gamma=   37.86 GHz
     lambda(    4)=  0.0046   gamma=    7.81 GHz
     lambda(    5)=  0.2263   gamma=  414.30 GHz
     lambda(    6)=  0.0020   gamma=    3.73 GHz
     lambda(    7)=  0.8107   gamma= 1781.89 GHz
     lambda(    8)=  0.0018   gamma=    4.53 GHz
     lambda(    9)=  0.0012   gamma=    3.28 GHz
     lambda(   10)=  0.0099   gamma=   27.91 GHz
     lambda(   11)=  0.0002   gamma=    0.75 GHz
     lambda(   12)=  0.0991   gamma=  320.04 GHz
     lambda(   13)=  0.0002   gamma=    0.58 GHz
     lambda(   14)=  0.0000   gamma=    0.03 GHz
     lambda(   15)=  0.0010   gamma=    3.46 GHz
     lambda(   16)=  0.0000   gamma=    0.06 GHz
     lambda(   17)=  0.0048   gamma=   20.63 GHz
     lambda(   18)=  0.0059   gamma=   26.64 GHz
     lambda(   19)=  0.0007   gamma=    3.43 GHz
     lambda(   20)=  0.0036   gamma=   23.08 GHz
     lambda(   21)=  0.0004   gamma=    2.41 GHz
     Gaussian Broadening:   0.010 Ry, ngauss=   0
     DOS =  2.130656 states/spin/Ry/Unit Cell at Ef= 17.149400 eV
     lambda(    1)=  0.0313   gamma=    2.67 GHz
     lambda(    2)=  0.0142   gamma=    1.87 GHz
     lambda(    3)=  0.1660   gamma=   50.03 GHz
     lambda(    4)=  0.0200   gamma=   37.95 GHz
     lambda(    5)=  0.2290   gamma=  469.97 GHz
     lambda(    6)=  0.0321   gamma=   67.60 GHz
     lambda(    7)=  0.6595   gamma= 1625.08 GHz
     lambda(    8)=  0.0260   gamma=   75.30 GHz
     lambda(    9)=  0.0035   gamma=   10.50 GHz
     lambda(   10)=  0.0198   gamma=   62.46 GHz
     lambda(   11)=  0.0043   gamma=   14.76 GHz
     lambda(   12)=  0.0868   gamma=  314.19 GHz
     lambda(   13)=  0.0005   gamma=    1.98 GHz
     lambda(   14)=  0.0002   gamma=    0.83 GHz
     lambda(   15)=  0.0012   gamma=    4.76 GHz
     lambda(   16)=  0.0002   gamma=    0.64 GHz
     lambda(   17)=  0.0044   gamma=   21.48 GHz
     lambda(   18)=  0.0061   gamma=   31.05 GHz
     lambda(   19)=  0.0035   gamma=   18.30 GHz
     lambda(   20)=  0.0043   gamma=   31.06 GHz
     lambda(   21)=  0.0018   gamma=   13.22 GHz
     Gaussian Broadening:   0.015 Ry, ngauss=   0
     DOS =  2.235086 states/spin/Ry/Unit Cell at Ef= 17.146382 eV
     lambda(    1)=  0.0545   gamma=    4.88 GHz
     lambda(    2)=  0.0176   gamma=    2.43 GHz
     lambda(    3)=  0.1877   gamma=   59.34 GHz
     lambda(    4)=  0.0471   gamma=   93.80 GHz
     lambda(    5)=  0.2641   gamma=  568.69 GHz
     lambda(    6)=  0.0559   gamma=  123.29 GHz
     lambda(    7)=  0.6260   gamma= 1618.16 GHz
     lambda(    8)=  0.0446   gamma=  135.41 GHz
     lambda(    9)=  0.0042   gamma=   13.37 GHz
     lambda(   10)=  0.0293   gamma=   96.83 GHz
     lambda(   11)=  0.0078   gamma=   27.81 GHz
     lambda(   12)=  0.0949   gamma=  360.51 GHz
     lambda(   13)=  0.0009   gamma=    3.39 GHz
     lambda(   14)=  0.0005   gamma=    1.83 GHz
     lambda(   15)=  0.0014   gamma=    5.87 GHz
     lambda(   16)=  0.0004   gamma=    1.50 GHz
     lambda(   17)=  0.0051   gamma=   26.22 GHz
     lambda(   18)=  0.0067   gamma=   35.62 GHz
     lambda(   19)=  0.0045   gamma=   24.85 GHz
     lambda(   20)=  0.0069   gamma=   51.99 GHz
     lambda(   21)=  0.0032   gamma=   25.18 GHz
     Gaussian Broadening:   0.020 Ry, ngauss=   0
     DOS =  2.290454 states/spin/Ry/Unit Cell at Ef= 17.145317 eV
     lambda(    1)=  0.0681   gamma=    6.25 GHz
     lambda(    2)=  0.0195   gamma=    2.76 GHz
     lambda(    3)=  0.1868   gamma=   60.51 GHz
     lambda(    4)=  0.0845   gamma=  172.39 GHz
     lambda(    5)=  0.2979   gamma=  657.34 GHz
     lambda(    6)=  0.0701   gamma=  158.37 GHz
     lambda(    7)=  0.5806   gamma= 1537.86 GHz
     lambda(    8)=  0.0563   gamma=  175.24 GHz
     lambda(    9)=  0.0050   gamma=   16.13 GHz
     lambda(   10)=  0.0356   gamma=  120.75 GHz
     lambda(   11)=  0.0103   gamma=   38.03 GHz
     lambda(   12)=  0.0978   gamma=  380.41 GHz
     lambda(   13)=  0.0015   gamma=    5.90 GHz
     lambda(   14)=  0.0007   gamma=    2.82 GHz
     lambda(   15)=  0.0016   gamma=    6.80 GHz
     lambda(   16)=  0.0006   gamma=    2.56 GHz
     lambda(   17)=  0.0054   gamma=   28.47 GHz
     lambda(   18)=  0.0068   gamma=   37.01 GHz
     lambda(   19)=  0.0048   gamma=   27.47 GHz
     lambda(   20)=  0.0091   gamma=   70.41 GHz
     lambda(   21)=  0.0045   gamma=   36.82 GHz
     Gaussian Broadening:   0.025 Ry, ngauss=   0
     DOS =  2.332190 states/spin/Ry/Unit Cell at Ef= 17.144758 eV
     lambda(    1)=  0.0751   gamma=    7.01 GHz
     lambda(    2)=  0.0206   gamma=    2.96 GHz
     lambda(    3)=  0.1801   gamma=   59.41 GHz
     lambda(    4)=  0.1164   gamma=  241.74 GHz
     lambda(    5)=  0.3250   gamma=  730.14 GHz
     lambda(    6)=  0.0774   gamma=  178.17 GHz
     lambda(    7)=  0.5416   gamma= 1460.88 GHz
     lambda(    8)=  0.0627   gamma=  198.79 GHz
     lambda(    9)=  0.0056   gamma=   18.53 GHz
     lambda(   10)=  0.0393   gamma=  135.61 GHz
     lambda(   11)=  0.0123   gamma=   45.93 GHz
     lambda(   12)=  0.0972   gamma=  385.13 GHz
     lambda(   13)=  0.0021   gamma=    8.37 GHz
     lambda(   14)=  0.0009   gamma=    3.71 GHz
     lambda(   15)=  0.0017   gamma=    7.54 GHz
     lambda(   16)=  0.0008   gamma=    3.51 GHz
     lambda(   17)=  0.0055   gamma=   29.41 GHz
     lambda(   18)=  0.0068   gamma=   37.51 GHz
     lambda(   19)=  0.0049   gamma=   28.67 GHz
     lambda(   20)=  0.0108   gamma=   84.91 GHz
     lambda(   21)=  0.0056   gamma=   45.96 GHz
     Gaussian Broadening:   0.030 Ry, ngauss=   0
     DOS =  2.360595 states/spin/Ry/Unit Cell at Ef= 17.144134 eV
     lambda(    1)=  0.0780   gamma=    7.37 GHz
     lambda(    2)=  0.0210   gamma=    3.07 GHz
     lambda(    3)=  0.1716   gamma=   57.28 GHz
     lambda(    4)=  0.1383   gamma=  290.75 GHz
     lambda(    5)=  0.3389   gamma=  770.75 GHz
     lambda(    6)=  0.0802   gamma=  186.96 GHz
     lambda(    7)=  0.5080   gamma= 1386.83 GHz
     lambda(    8)=  0.0655   gamma=  210.03 GHz
     lambda(    9)=  0.0060   gamma=   20.15 GHz
     lambda(   10)=  0.0409   gamma=  142.87 GHz
     lambda(   11)=  0.0135   gamma=   51.17 GHz
     lambda(   12)=  0.0948   gamma=  380.37 GHz
     lambda(   13)=  0.0024   gamma=   10.11 GHz
     lambda(   14)=  0.0010   gamma=    4.35 GHz
     lambda(   15)=  0.0018   gamma=    7.97 GHz
     lambda(   16)=  0.0009   gamma=    4.16 GHz
     lambda(   17)=  0.0055   gamma=   29.51 GHz
     lambda(   18)=  0.0067   gamma=   37.49 GHz
     lambda(   19)=  0.0050   gamma=   29.30 GHz
     lambda(   20)=  0.0122   gamma=   97.00 GHz
     lambda(   21)=  0.0062   gamma=   51.92 GHz
     Gaussian Broadening:   0.035 Ry, ngauss=   0
     DOS =  2.381114 states/spin/Ry/Unit Cell at Ef= 17.143351 eV
     lambda(    1)=  0.0788   gamma=    7.52 GHz
     lambda(    2)=  0.0211   gamma=    3.10 GHz
     lambda(    3)=  0.1625   gamma=   54.73 GHz
     lambda(    4)=  0.1527   gamma=  323.85 GHz
     lambda(    5)=  0.3429   gamma=  786.58 GHz
     lambda(    6)=  0.0807   gamma=  189.74 GHz
     lambda(    7)=  0.4784   gamma= 1317.35 GHz
     lambda(    8)=  0.0662   gamma=  214.42 GHz
     lambda(    9)=  0.0063   gamma=   21.22 GHz
     lambda(   10)=  0.0413   gamma=  145.53 GHz
     lambda(   11)=  0.0143   gamma=   54.72 GHz
     lambda(   12)=  0.0917   gamma=  370.93 GHz
     lambda(   13)=  0.0027   gamma=   11.29 GHz
     lambda(   14)=  0.0011   gamma=    4.83 GHz
     lambda(   15)=  0.0018   gamma=    8.24 GHz
     lambda(   16)=  0.0010   gamma=    4.61 GHz
     lambda(   17)=  0.0054   gamma=   29.22 GHz
     lambda(   18)=  0.0066   gamma=   37.25 GHz
     lambda(   19)=  0.0050   gamma=   29.72 GHz
     lambda(   20)=  0.0136   gamma=  109.04 GHz
     lambda(   21)=  0.0066   gamma=   55.77 GHz
     Gaussian Broadening:   0.040 Ry, ngauss=   0
     DOS =  2.398900 states/spin/Ry/Unit Cell at Ef= 17.142416 eV
     lambda(    1)=  0.0790   gamma=    7.59 GHz
     lambda(    2)=  0.0210   gamma=    3.11 GHz
     lambda(    3)=  0.1538   gamma=   52.17 GHz
     lambda(    4)=  0.1628   gamma=  347.74 GHz
     lambda(    5)=  0.3420   gamma=  790.30 GHz
     lambda(    6)=  0.0804   gamma=  190.43 GHz
     lambda(    7)=  0.4525   gamma= 1255.48 GHz
     lambda(    8)=  0.0662   gamma=  215.94 GHz
     lambda(    9)=  0.0065   gamma=   22.10 GHz
     lambda(   10)=  0.0412   gamma=  146.21 GHz
     lambda(   11)=  0.0150   gamma=   57.69 GHz
     lambda(   12)=  0.0884   gamma=  360.22 GHz
     lambda(   13)=  0.0029   gamma=   12.23 GHz
     lambda(   14)=  0.0012   gamma=    5.26 GHz
     lambda(   15)=  0.0019   gamma=    8.51 GHz
     lambda(   16)=  0.0011   gamma=    4.97 GHz
     lambda(   17)=  0.0053   gamma=   28.90 GHz
     lambda(   18)=  0.0065   gamma=   36.97 GHz
     lambda(   19)=  0.0050   gamma=   30.10 GHz
     lambda(   20)=  0.0151   gamma=  122.30 GHz
     lambda(   21)=  0.0069   gamma=   58.80 GHz
     Gaussian Broadening:   0.045 Ry, ngauss=   0
     DOS =  2.416850 states/spin/Ry/Unit Cell at Ef= 17.141341 eV
     lambda(    1)=  0.0791   gamma=    7.66 GHz
     lambda(    2)=  0.0209   gamma=    3.12 GHz
     lambda(    3)=  0.1457   gamma=   49.79 GHz
     lambda(    4)=  0.1704   gamma=  366.79 GHz
     lambda(    5)=  0.3395   gamma=  790.47 GHz
     lambda(    6)=  0.0801   gamma=  191.13 GHz
     lambda(    7)=  0.4301   gamma= 1202.16 GHz
     lambda(    8)=  0.0659   gamma=  216.64 GHz
     lambda(    9)=  0.0067   gamma=   23.08 GHz
     lambda(   10)=  0.0409   gamma=  146.38 GHz
     lambda(   11)=  0.0156   gamma=   60.70 GHz
     lambda(   12)=  0.0852   gamma=  349.94 GHz
     lambda(   13)=  0.0031   gamma=   13.15 GHz
     lambda(   14)=  0.0013   gamma=    5.74 GHz
     lambda(   15)=  0.0019   gamma=    8.87 GHz
     lambda(   16)=  0.0012   gamma=    5.33 GHz
     lambda(   17)=  0.0052   gamma=   28.78 GHz
     lambda(   18)=  0.0064   gamma=   36.76 GHz
     lambda(   19)=  0.0051   gamma=   30.55 GHz
     lambda(   20)=  0.0168   gamma=  136.81 GHz
     lambda(   21)=  0.0072   gamma=   61.99 GHz
     Gaussian Broadening:   0.050 Ry, ngauss=   0
     DOS =  2.436152 states/spin/Ry/Unit Cell at Ef= 17.140123 eV
     lambda(    1)=  0.0794   gamma=    7.74 GHz
     lambda(    2)=  0.0209   gamma=    3.14 GHz
     lambda(    3)=  0.1383   gamma=   47.65 GHz
     lambda(    4)=  0.1766   gamma=  383.14 GHz
     lambda(    5)=  0.3372   gamma=  791.33 GHz
     lambda(    6)=  0.0801   gamma=  192.71 GHz
     lambda(    7)=  0.4106   gamma= 1156.67 GHz
     lambda(    8)=  0.0656   gamma=  217.35 GHz
     lambda(    9)=  0.0071   gamma=   24.35 GHz
     lambda(   10)=  0.0407   gamma=  146.68 GHz
     lambda(   11)=  0.0164   gamma=   64.03 GHz
     lambda(   12)=  0.0823   gamma=  340.74 GHz
     lambda(   13)=  0.0033   gamma=   14.19 GHz
     lambda(   14)=  0.0015   gamma=    6.34 GHz
     lambda(   15)=  0.0020   gamma=    9.35 GHz
     lambda(   16)=  0.0012   gamma=    5.73 GHz
     lambda(   17)=  0.0052   gamma=   28.93 GHz
     lambda(   18)=  0.0063   gamma=   36.63 GHz
     lambda(   19)=  0.0051   gamma=   31.13 GHz
     lambda(   20)=  0.0185   gamma=  152.12 GHz
     lambda(   21)=  0.0076   gamma=   66.01 GHz
 
 
     Number of q in the star =   12
     List of q in the star:
          1   0.216506351   0.216506351   0.000000000
          2   0.216506351  -0.216506351   0.000000000
          3  -0.216506351  -0.216506351   0.000000000
          4  -0.216506351   0.216506351   0.000000000
          5   0.216506351   0.000000000  -0.216506351
          6  -0.216506351  -0.000000000   0.216506351
          7   0.216506351  -0.000000000   0.216506351
          8   0.000000000  -0.216506351  -0.216506351
          9   0.000000000   0.216506351  -0.216506351
         10  -0.000000000   0.216506351   0.216506351
         11  -0.000000000  -0.216506351   0.216506351
         12  -0.216506351   0.000000000  -0.216506351
 
     init_run     :      0.09s CPU      0.22s WALL (       1 calls)
     electrons    :     91.89s CPU    101.30s WALL (       1 calls)

     Called by init_run:
     wfcinit      :      0.00s CPU      0.05s WALL (       1 calls)
     potinit      :      0.01s CPU      0.08s WALL (       1 calls)
     hinit0       :      0.04s CPU      0.04s WALL (       1 calls)

     Called by electrons:
     c_bands      :     91.74s CPU    101.14s WALL (       1 calls)
     v_of_rho     :      0.01s CPU      0.02s WALL (       2 calls)
     newd         :      0.00s CPU      0.02s WALL (       2 calls)

     Called by c_bands:
     init_us_2    :     12.85s CPU     14.43s WALL (  486140 calls)
     cegterg      :     67.67s CPU     72.80s WALL (    4382 calls)

     Called by *egterg:
     cdiaghg      :     23.50s CPU     25.10s WALL (   69241 calls)
     h_psi        :   5522.63s CPU   6687.72s WALL ( 5145293 calls)
     s_psi        :    103.08s CPU    117.47s WALL (10598463 calls)
     g_psi        :      0.20s CPU      0.22s WALL (   64881 calls)

     Called by h_psi:
     h_psi:calbec :     94.97s CPU    107.25s WALL ( 5145293 calls)
     vloc_psi     :   5335.20s CPU   6475.48s WALL ( 5145293 calls)
     add_vuspsi   :     49.05s CPU     55.88s WALL ( 5145293 calls)

     General routines
     calbec       :    292.91s CPU    319.68s WALL (11239383 calls)
     fft          :      0.63s CPU      0.90s WALL (    3511 calls)
     ffts         :      2.33s CPU      2.58s WALL (   46615 calls)
     fftw         :   7534.19s CPU   9220.12s WALL (71316058 calls)
     interpolate  :      0.10s CPU      0.12s WALL (     373 calls)
     davcio       :     86.80s CPU   2482.38s WALL ( 2064549 calls)
 
     Parallel routines
 
     PHONON       :      3h21m CPU      4h35m WALL

     INITIALIZATION: 
     phq_setup    :      0.03s CPU      0.05s WALL (       1 calls)
     phq_init     :     56.33s CPU     62.90s WALL (       1 calls)
 
     phq_init     :     56.33s CPU     62.90s WALL (       1 calls)
     set_drhoc    :      0.04s CPU      0.04s WALL (       3 calls)
     init_vloc    :      0.00s CPU      0.01s WALL (       2 calls)
     init_us_1    :      0.06s CPU      0.11s WALL (       2 calls)
     newd         :      0.00s CPU      0.02s WALL (       2 calls)
     dvanqq       :      0.17s CPU      0.17s WALL (       1 calls)
     drho         :     37.26s CPU     41.70s WALL (       1 calls)
 
     DYNAMICAL MATRIX:
     dynmat0      :     10.42s CPU     11.42s WALL (       1 calls)
     phqscf       :  11873.80s CPU  16275.09s WALL (       1 calls)
     dynmatrix    :      0.07s CPU      0.15s WALL (       1 calls)
 
     phqscf       :  11873.80s CPU  16275.09s WALL (       1 calls)
     solve_linter :  11759.07s CPU  16142.02s WALL (      21 calls)
     drhodv       :    114.71s CPU    131.42s WALL (      21 calls)
 
     dynmat0      :     10.42s CPU     11.42s WALL (       1 calls)
     dynmat_us    :     10.38s CPU     11.36s WALL (       1 calls)
     d2ionq       :      0.01s CPU      0.01s WALL (       1 calls)
     dynmatcc     :      0.03s CPU      0.04s WALL (       1 calls)
 
     dynmat_us    :     10.38s CPU     11.36s WALL (       1 calls)
     addusdynmat  :      0.00s CPU      0.00s WALL (       1 calls)
 
     phqscf       :  11873.80s CPU  16275.09s WALL (       1 calls)
     solve_linter :  11759.07s CPU  16142.02s WALL (      21 calls)
 
     solve_linter :  11759.07s CPU  16142.02s WALL (      21 calls)
     dvqpsi_us    :     67.64s CPU     74.00s WALL (   45780 calls)
     ortho        :    108.39s CPU    115.45s WALL (  381500 calls)
     cgsolve      :   5866.34s CPU   7080.59s WALL (  381500 calls)
     incdrhoscf   :   1254.44s CPU   1556.91s WALL (  381500 calls)
     addusddens   :      3.02s CPU      3.61s WALL (     196 calls)
     vpsifft      :   1153.90s CPU   1425.94s WALL (  381500 calls)
     dv_of_drho   :      0.51s CPU      0.55s WALL (     175 calls)
     mix_pot      :      8.78s CPU     41.80s WALL (     175 calls)
     psymdvscf    :      4.40s CPU      4.57s WALL (     175 calls)
     newdq        :      2.39s CPU      2.41s WALL (     175 calls)
     adddvscf     :     11.78s CPU     13.60s WALL (  381500 calls)
     drhodvus     :      8.57s CPU     13.30s WALL (      21 calls)
 
     dvqpsi_us    :     67.64s CPU     74.00s WALL (   45780 calls)
     dvqpsi_us_on :     25.61s CPU     27.30s WALL (   45780 calls)
 
     cgsolve      :   5866.34s CPU   7080.59s WALL (  381500 calls)
     ch_psi       :   5801.26s CPU   7005.88s WALL ( 5071670 calls)
 
     ch_psi       :   5801.26s CPU   7005.88s WALL ( 5071670 calls)
     h_psi        :   5522.63s CPU   6687.72s WALL ( 5145293 calls)
     last         :    211.76s CPU    240.16s WALL ( 5071670 calls)
 
     h_psi        :   5522.63s CPU   6687.72s WALL ( 5145293 calls)
     add_vuspsi   :     49.05s CPU     55.88s WALL ( 5145293 calls)
 
     incdrhoscf   :   1254.44s CPU   1556.91s WALL (  381500 calls)
     addusdbec    :     12.64s CPU     14.17s WALL (  427280 calls)
 
     drhodvus     :      8.57s CPU     13.30s WALL (      21 calls)
 
      Electron-phonon coupling
     elphel       :    370.20s CPU    514.12s WALL (      21 calls)
     elphsum      :     62.56s CPU     64.60s WALL (       1 calls)
 
      General routines
     calbec       :    292.91s CPU    319.68s WALL (11239383 calls)
     fft          :      0.63s CPU      0.90s WALL (    3511 calls)
     ffts         :      2.33s CPU      2.58s WALL (   46615 calls)
     fftw         :   7534.19s CPU   9220.12s WALL (71316058 calls)
     davcio       :     86.80s CPU   2482.38s WALL ( 2064549 calls)
     write_rec    :      0.12s CPU     14.42s WALL (     196 calls)
 
 
     PHONON       :      3h21m CPU      4h35m WALL

 
   This run was terminated on:  19:44:46  27Jul2022            

=------------------------------------------------------------------------------=
   JOB DONE.
=------------------------------------------------------------------------------=
