(written by ASE)

320 atoms
6 atom types

0.0      10.923714975168057  xlo xhi
0.0      10.914081242457106  ylo yhi
0.0      10.908033013942761  zlo zhi
   0.039153100161292212    0.030219518493673225     -0.0174540203156116  xy xz yz

Atoms # atomic

     1   1      5.5151200563121767      5.4334831744121104      10.905067383339693
     2   1      5.4893432255958583      5.4497789964696803      5.4461987908261351
     3   1      2.7256945008588649       2.733687800463064    0.032339173562790979
     4   1      2.7644309606948041      8.1924019224802116    0.020894667077943924
     5   1      2.7148567823823204    0.029271394277333766      2.7255474246233886
     6   1      5.5299316091052484      2.7118885076803223      8.2363071041735338
     7   1      5.4715523156413139      8.1795972227302247      2.7304681996063338
     8   1      10.943700176484475      2.6856035052810929      8.1760839005777193
     9   2      5.4775640168154371   -0.040155979448752627      5.3609057204977848
    10   2    0.081212977662163371    0.082156614471281669    0.021104224552104849
    11   2      8.2359429277643006       2.639865739448636    0.033853592389235104
    12   2      8.2015602429380703      2.6922783990360735      5.5165453922777044
    13   2      8.0986990252575666    0.049704995271682685      2.6309071373744417
    14   2      2.7856765888766279      5.5164476525343682      2.6253610371441827
    15   2        5.47999466800416      8.0899953789179602      8.1511744896924885
    16   2      10.881825915889436      2.6930279212688251      2.5757664629311581
    17   3       5.464297461306403   0.0021613985109216506  0.00031965443553410195
    18   3    0.068832250251204222      10.878387936830995       5.475692517155224
    19   3    0.022033335862977881      5.4241631135353501    0.014363229312034315
    20   3      10.946810288034797      5.4201751495069015      5.4254677974045125
    21   3      2.7751039993372557      2.7396640665267378      5.4747290203707752
    22   3       2.807515026225142      8.2045970978075555      5.4600999092793394
    23   3      2.8009305293657976      10.892165153018702      8.1999156976312459
    24   3     0.04239365351670419      8.1792553246142674      2.7295087005994279
    25   4      8.2211728868170049      8.2142596588557151    0.018397089229844888
    26   4      8.2045572113032126      8.1995700497823822      5.4501484261228006
    27   4      8.1846074770325039    0.021014024675322842      8.1734322899536824
    28   4      8.2118858262213852      5.4233650755686549      8.1847670414154514
    29   4      8.2175362386728121      5.4431617815297946       2.729363033945019
    30   4      2.7768146575956232      5.4429795602669921      8.1858390219811046
    31   4      5.5284531083915995      2.6944651453199144      2.7111083615191687
    32   4    0.053368286284048973      8.1653101843193774       8.195954802546332
    33   5      2.7526342534909087      2.8050464286369219      2.7153684429691975
    34   5      2.7590613727839646      2.7038964667660017      8.1921906522547836
    35   5      2.7615646113088865      8.1694353350525954      2.7305744958847518
    36   5      2.7954491014328635      8.1837408322179499      8.1840312791510357
    37   5      8.2677488151372653      2.7003557934103024      2.7760090200091145
    38   5      8.2303159471178216      2.7008397018780488      8.1697210652789849
    39   5      8.2330780268414809      8.2313778818269867      2.7363354889810978
    40   5       8.209027644368307      8.1768165915825755      8.1814851544767961
    41   5       5.473941367442051       5.466881962977773      2.7301047040017634
    42   5       5.508694825508285      5.4372460644050644      8.1785282737568519
    43   5      5.4736070614889636   0.0086190881696778712      2.7537328211542538
    44   5      5.5084480934163702      10.872782618165385      8.1655741509198752
    45   5    0.042924754731673204      5.4158913622995764      2.7262306301676236
    46   5      10.952378971986327      5.4272232945209362      8.1792628196998631
    47   5      10.899684391921047    0.020415756764735084      2.7114347386308912
    48   5    0.022820877179585235   0.0022142531796533324      8.2183969283307565
    49   5      5.4899616409100371        2.71875887582422    0.012144612891830671
    50   5      5.5500329057746418      2.6562765778951647      5.4641579184045463
    51   5      5.5065747446684554      8.1737582498317671      10.897980461416749
    52   5      5.4984557950980166      8.2007903798525383      5.4658795502728745
    53   5      10.925664450335335        2.70879847156103   0.0039820234677090385
    54   5      10.938693755397285      2.6843040851171418      5.3916937815913641
    55   5    0.038571668385441446      8.2173550670126811    0.014345300823699897
    56   5    0.063364396729625794       8.152877675435791      5.4415062840894368
    57   5      2.7430186801438965      5.4605683602772581    0.022076182444407587
    58   5      2.7432941968979154      5.4774894937517322      5.4199704238137372
    59   5      2.7130812330904659 -0.00024651176088861333    0.010693748031033689
    60   5      2.7551447452772599   0.0099645077110997876      5.4646500063297037
    61   5      8.2150686144055332      5.4306538258355515   0.0033388017883168694
    62   5      8.2203564622750651      5.4213682135538708      5.4518538041678264
    63   5      8.2336010201918857    0.018439891643542056    0.016013597051881927
    64   5      8.1665998745009976    0.034544707750948644      5.4344896067441466
    65   6      1.7633444251562884       2.084506282998245      3.6771165778143517
    66   6      1.9408016459105057      1.8360551873189865      8.9542757328940397
    67   6      1.9174546665430963      7.4197868936072533      3.6386027203922771
    68   6      1.9349708905872709       7.398878375905281      8.9946754221134793
    69   6      7.3772950027156217      2.0326779955722123      3.6678295162556864
    70   6      7.4038341664993395      1.9591269664268245      9.0471416179719171
    71   6      7.4461134758398941      7.3473538637686806      3.5449822057265723
    72   6      7.3975206573053507      7.3847046256824687      9.0301640952557278
    73   6      3.7055799173561468      3.6731978105185727      2.1988912373957681
    74   6      3.5486642583747421      3.5866260686519413       7.301133741968127
    75   6      3.5241107290918734      9.0476672985491078      1.9537824279044664
    76   6      3.6008983905106424      9.0098344237639427       7.322911371947515
    77   6      9.0049724472534347      3.5643814401416489      1.9373509973848944
    78   6      9.0229316471740493      3.5472085167697918      7.3457568892555045
    79   6      9.1198132280808615      9.0396520128360205      1.9244858643829534
    80   6      9.0654259624928972      9.0273013641930184       7.403560932771331
    81   6      1.9319562438946716      3.6514762437627279       2.025300288496017
    82   6      1.9545107125892258      3.5256469320901713      7.3233583344544044
    83   6      1.8494222576022608      9.0476433275896735      2.0174389288250842
    84   6      2.0122481357474351      9.0575104802503255      7.3363230857086341
    85   6      7.4247564898945653         3.5540838681592      1.9618691081719162
    86   6      7.3982735343722945        3.55580073716161      7.3833042496325492
    87   6      7.4619253568406494      9.0588792871646948      1.9083704168351154
    88   6      7.3725401927617158      9.0147642294078274      7.3949636676130766
    89   6       3.314369585514592       1.880926181036473      3.6773761593171601
    90   6      3.6307666252650055      1.8326854648584761      8.8340386397691084
    91   6      3.5059472646883743      7.3842661726085428      3.6517834690175479
    92   6      3.6324282774174543      7.3754001964172273      8.9531346798032772
    93   6       9.155077890325261      2.0911570413621705      3.6647126632222662
    94   6      9.0355380869066817      1.9196982292530798      9.0654319103050689
    95   6      9.0825156700056233      7.3484828684369177      3.5154084090751634
    96   6      9.0615339080488457      7.3954179236398083      9.0386030481823454
    97   6       3.573876340047097      1.9235005574096047        1.97590392058557
    98   6      3.8153075964554768      2.0847153472939577       7.126628997192153
    99   6      3.5593086351326431      7.3234828272446597      1.9714246686735992
   100   6      3.6052702228369879      7.4252074311442406      7.2837234689979873
   101   6      9.0725642151377155       1.959289060442517      1.8759502409444799
   102   6      9.0375813955415989      1.8859869882749221      7.3304457684905797
   103   6      9.0996193929465576      7.3928471895563543      1.9193562564940125
   104   6      9.0645683949810945      7.3619817607352047      7.3576854825215703
   105   6      2.4379654733900469      3.7387052757183836      3.7076670660699631
   106   6      1.9469458019868358       3.528851474610232      8.9750825347794247
   107   6      1.9553026896301735      9.0007449742279224      3.5767051741661167
   108   6      1.9495222077529684      9.0613728993844127       8.960746232735664
   109   6      7.4135337853784158      3.5521476000740146      3.6044813723192037
   110   6       7.437855391275785      3.5253493642340894      9.0063238093424456
   111   6      7.4278288577214271      9.0377291374914357      3.5607106756331728
   112   6      7.4380231657681843      9.0111460492618551      9.0097537904262488
   113   6      3.8254235853927785      3.3438706936720002      3.8115865690994291
   114   6      3.6009233655932795      3.5761511218699416      8.9277176805859852
   115   6       3.489182126039017      9.0238200289756136      3.6305844043677662
   116   6      3.6086577082777462      9.0376237112367264      8.9449212618517677
   117   6      8.9641827151402396      3.6175377951262546      3.6091122658756483
   118   6      8.9996394911725215      3.5168632457647457      9.0227454897085781
   119   6      9.0764663947795423      9.0421725761277116      3.5293356050335212
   120   6        9.07804509068065      9.0117704779639958      9.0258186737262669
   121   6      1.8234114896687945      1.9072757453078142      2.1483349379691696
   122   6      2.1344402487021985      1.8288722430281159      7.2705119176110484
   123   6      1.8472712090176229      7.4003420834105853      1.9679397915327099
   124   6      1.9655475660977335      7.4151502310305384      7.2970534731648158
   125   6      7.4367534275056508      1.9226884561982209      1.9305649268595904
   126   6      7.3296568663406854      1.9630579502235901      7.2945904804119905
   127   6      7.4554972185445907      7.3556730412620315      1.9151779354538183
   128   6      7.3641407579601479      7.3733672585154819      7.3849161396013523
   129   6      4.6898039264022078      4.6209272852689409      3.4966831628651112
   130   6      4.6751900783592761        4.61199918852782      9.0137984805152733
   131   6      4.6529679442623726       10.07536195008905      3.4569270158776391
   132   6       4.684937251331136      10.085624575238972      9.0472380641002985
   133   6      10.052857127132054      4.6215183662368764      3.5521146671202937
   134   6      10.159955158539491      4.5970518299236254      9.0075880346773722
   135   6      10.270455674341198      9.9932251864250521      3.6178537893814711
   136   6      10.159597890622837      10.045047636743844      8.9299649998648167
   137   6     0.80019415763425172     0.73868752218993528      1.8584171420192033
   138   6     0.90046442466817422     0.72215694669485886      7.3253254033105621
   139   6     0.85046026906546657      6.2687975845833348      1.9490766087209197
   140   6     0.83514149240416269      6.2429388266563786      7.3278222714549193
   141   6       6.270650668220819     0.78541707738162525      1.8391218016425037
   142   6      6.2991747265939111     0.80415235508269067      7.3321519073842518
   143   6       6.316025455052114      6.2313094282491583      1.8796143744585494
   144   6      6.3233338504775096      6.2531472209118615      7.3619780048418182
   145   6      4.6561221817733109     0.77215461196283808      1.8374190017614052
   146   6      4.5660173217931783     0.73944837448133682      7.4189126212743899
   147   6      4.6496592591556096      6.1862531129472229       1.860182787818788
   148   6      4.6747476129617977      6.2730745122119256       7.396784218656002
   149   6      9.9579243400399822     0.85610857606020885       2.172070294787523
   150   6      10.149205265953034     0.76095070081452687      7.2903312146048806
   151   6      10.134322840183343      6.2624899443213193      1.9248662175264304
   152   6      10.134536008552555      6.2227908745941694      7.3117578129030187
   153   6     0.80820973559962517      4.5524973597315075      3.4883822840281447
   154   6     0.84258681495293886      4.6113929762027714       9.004651879072366
   155   6      0.8417704131437127      10.018128537191863      3.5096647408131973
   156   6     0.87815519727915459      10.032696833726883      8.9541219352731201
   157   6      6.3721366844099414      4.5904103444132511      3.4983640754961982
   158   6         6.3051462678657      4.5772203580612691      9.0322089306645861
   159   6      6.3283050685476541      10.064655381695399      3.4852621299400552
   160   6      6.2726695544978028      10.050781827485341      9.0262982202985231
   161   6     0.79103129047236342      4.6182786614776505      1.8404874374442108
   162   6     0.81935710940346818      4.6204730816310722      7.3361108553474255
   163   6     0.85165088545225898      9.9940250854512449      2.0078214191665924
   164   6     0.77759593782941239      10.041423726759078      7.3379501252913446
   165   6      6.2966587978935191      4.6024528475271058      1.9000318972862034
   166   6      6.3347805779125848       4.569807127707084      7.3720990732075409
   167   6         6.2482929370328      10.107273755768656      1.8711417876733303
   168   6      6.3234695908201832      10.068026998962138      7.3740330328442285
   169   6      4.6396688886853958      0.8247579958703759      3.5407184053335379
   170   6      4.6050805632254441     0.73189456233117511      9.0891642116786571
   171   6      4.6506872717221102      6.2656836793512101      3.5257331448516047
   172   6      4.6693732223761986      6.2211261221143577      9.0282886548481773
   173   6      9.8472972169686148     0.48795250645160454      3.7807185174671574
   174   6      10.128673841900945     0.77903127428538599      9.0348782719834588
   175   6      10.133058677477665      6.2612379536817704      3.5641427197723163
   176   6      10.149911213553896      6.2482709384632038      9.0147508692403875
   177   6     0.69234151290610557     0.82933980149515607      3.6233960768594669
   178   6     0.91360177361781447     0.72491127769181118      9.0313796548034304
   179   6     0.79673556928051703       6.309600990444558      3.5677919233619209
   180   6     0.85786810295759464      6.2379801256479581      9.0170033012074118
   181   6       6.380803868999199       0.789954863876973      3.5542542498286043
   182   6      6.2457698373758204     0.80350474377413605      9.0576996160413792
   183   6      6.3539263882851627       6.224923561609784      3.5436996687419757
   184   6      6.3018954310484698      6.2507587655383974      9.0288190188300614
   185   6      4.7339735655368385      4.5984541577059401      1.8654127467866175
   186   6       4.687488969516429      4.5923901751491849      7.3896391277184428
   187   6      4.6884781677395697      10.171403408887908      1.8744903753578921
   188   6      4.6496577610363738      9.9963006824509737      7.4875307193758971
   189   6      10.098819040156782      4.5989062341717482      1.9294917497098816
   190   6      10.154040871441028      4.6044321639123238       7.319608452995138
   191   6      10.141559097270163      10.006798687525484      2.0451215038930588
   192   6      10.181798911390068      10.097695859738682      7.3057946016247426
   193   6      4.6465268045983645      1.8755718139490101     0.82797201685126209
   194   6      4.5185452821364525      2.0196343888858688      6.4586638805698575
   195   6      4.6616011467355571      7.3894779026829553     0.82476870655234424
   196   6      4.6416029796190292      7.3970003917951859      6.2617062337567537
   197   6      10.086401143484991      1.9061154154593045     0.82346460350683381
   198   6      10.126447838619805      1.8639699607083908      6.1536835208427858
   199   6      10.131920376775012      7.4100744174167801     0.86775285548000669
   200   6      10.152718982253329       7.350222837363436      6.2568020612614399
   201   6      1.0571409583953399      3.7335140604804353      4.6952196216070279
   202   6     0.82124105121810553      3.5664944274316817       10.11280096584129
   203   6     0.85544272557658718      8.9940781178415943      4.5829123628166952
   204   6     0.84754174466037113      9.0444152005244121       10.11954612177969
   205   6      6.0235615082156855      3.5768242816170952      4.5355707489848287
   206   6      6.3856352644142493       3.451714817148027      10.120678299442387
   207   6      6.2790870006652355      9.0657671578399235      4.6289890761892964
   208   6      6.3563695421445612      9.0352986792205989      10.124934621382069
   209   6      4.4660002307567854      3.4939851629388654      4.4651172696633106
   210   6      4.6581814583966157      3.4899288477212851      10.131179488586877
   211   6      4.6421102149035667      9.0227787129856658      4.6636343062722574
   212   6      4.7874898485129576       9.047556102500609      10.051456725907725
   213   6      10.372461076917361       3.594020168259108      4.5250377151117602
   214   6      10.136263365371095      3.5509179078798674      10.125576119772287
   215   6      10.195758216168961      9.0955610533320197       4.574733232917473
   216   6      10.133798420575308      9.0066186130108115      10.127470633082689
   217   6     0.84393828926965508      1.9692005721863626     0.87592475506703971
   218   6     0.91803375996987824      1.8402800869367943      6.0444812706534483
   219   6     0.81425282619496941      7.3828323115851378     0.89122095984498273
   220   6     0.94258295086598642      7.3174946697801602      6.1893789348385031
   221   6      6.3238180336089815      1.8508568462301744     0.78931632457936274
   222   6      5.7565444292318411      1.6585944464763429      6.4381266754058473
   223   6      6.3455851647485302      7.4248868441421818     0.81031941079240632
   224   6      6.2919134344262799      7.4096073664885882       6.309861841197292
   225   6      1.1412177643634978      2.4026532395152409      4.2950374207798232
   226   6     0.85019970230074882      1.9086348240367208      10.094667945974614
   227   6     0.93598405824081155      7.3556274874761511      4.5574241726329756
   228   6     0.84940716066467148      7.3027313576996118      10.143936491374722
   229   6      6.3684219563293345       1.781525541247081      4.7618108241021115
   230   6      6.3411572029707468      1.8534741879078238       10.12773493166538
   231   6      6.2986139370222611      7.3941972491102375      4.6261767194067591
   232   6      6.3729564060094699      7.4658709828987924      10.035653364235506
   233   6      4.6296895101469264      3.5072171088990189     0.86148063815698683
   234   6      4.5978376733251229      3.5624864662039206      6.0225289869222118
   235   6       4.712097828116435      9.0802923509584286     0.82609807801192292
   236   6      4.6741420968810994      9.0402103061111223      6.2403061055571394
   237   6      10.124290567511698      3.5842096393754757     0.77835396042147076
   238   6      10.144052515945257      3.5169284891310753      6.2333212675755973
   239   6      10.143875223030847      9.0590893258750391     0.84135654533333437
   240   6      10.150174202385079       9.027551354522755      6.1913922811896684
   241   6     0.82678943023317064      3.5893848583492072     0.82830241486191836
   242   6     0.83662878384559414      3.5236236042635709      6.2388460496103066
   243   6     0.76681996272687247      9.0572031485177096     0.88736649505043996
   244   6     0.91324347702759945      8.9969703141099746       6.224898886622011
   245   6      6.3544557854694137      3.4807081234444563     0.82171112431603532
   246   6      6.3413091077453982      3.4527397568781439       6.229180668438163
   247   6      6.3111849799501059       9.072388064084949     0.81527668520708396
   248   6      6.2489459650162047      9.0835515332571646      6.2699939249927681
   249   6      4.5897047431417795      1.8588473134542101      4.7675250176608248
   250   6      4.6887848282115003      1.8555920750611232      10.126852148259628
   251   6      4.6091149895224284      7.3983246288270808      4.6648216962595495
   252   6      4.7368651810882145      7.4057576861936045      10.014924835335757
   253   6      10.554347712583233      1.7617026050057738      4.4244059331382291
   254   6      10.077360335477957      1.9727049131698213      10.107594238862948
   255   6      10.137394347667582      7.4443709646450538      4.5701606054008064
   256   6      10.139555895420578      7.3281098865800089      10.146420453205039
   257   6      1.8750618018842027       4.623603616206041     0.78132074087317893
   258   6      1.9130357894558627      4.6119787162047254      6.2579670561950147
   259   6      1.9464694378692573       10.08083432979836     0.80006371656671993
   260   6      1.9627039078886825      10.120934055440605      6.3244473536747741
   261   6      7.4358529755037166      4.5980986215415118     0.84287167160201693
   262   6        7.48831385758462      4.5595927815938664      6.2706855223255458
   263   6      7.3705894179100406      10.090605086622841     0.77479185503173087
   264   6      7.4596677142586207      10.072529905574152      6.3131381912794824
   265   6      3.5718036704151674     0.81592387128679589      4.6546452332981465
   266   6      3.6268296293606244     0.75521156142416013      10.043055008081575
   267   6      3.4930547961148579      6.3140940397718959      4.5954613298229736
   268   6      3.5853187439459719       6.247301214078643      10.070226492722796
   269   6       9.200929340338849      0.6805061652503761      4.4355691867762603
   270   6      9.0181779101370889     0.80828811327780514       10.06082224100545
   271   6      9.1179952219207721      6.2151083224660688      4.6217720292722966
   272   6      9.1084034029718737      6.2329994679846852      10.098215198047692
   273   6      1.8499236593546817        0.86093036469619      4.7194262361524704
   274   6      2.0594848000868708      0.8296207230856657      9.9936258893197198
   275   6       1.786777325203718       5.895406871442372      4.4742338518339739
   276   6      1.9269916737598023      6.2193946127316719       10.07490578420299
   277   6      7.8137664248540029     0.93547284304337242       4.457105096492791
   278   6      7.3422919992765108     0.74531265013265113      10.087461202707027
   279   6      7.4440199426218339      6.2780563945191847      4.6097793778689162
   280   6      7.4444528891814157      6.2952472069639827      10.090030937070463
   281   6      3.5393295073406259       4.607647361548679     0.81279756606834774
   282   6      3.5197232174786626      4.6040257175392494      6.3126194753855005
   283   6      3.6520453272687421      10.104574562688223     0.77092155987235444
   284   6      3.5910854924722737      10.070986630305134      6.3024363398775129
   285   6      9.0569077256761545      4.5980144855496246     0.80570971278533421
   286   6      9.1533305968882672      4.5534002685122639      6.1272689711441668
   287   6      9.0886283037949678      10.086837426057864     0.79649262192272774
   288   6      9.0905672785640359      10.109205834035039      6.3135178037442179
   289   6      3.4855667015175831      4.6365372716927835       4.631946458330459
   290   6      3.5396740937326014      4.6040819655341565      10.071668188427939
   291   6      3.6088130232569648      10.095013084467318      4.6518340866248522
   292   6      3.6590698219154509      10.117895442083741      10.057271496153449
   293   6      9.1025061603954232      4.5862995231954065      4.6494354189893778
   294   6      9.1070131278205029      4.5791022595250057      10.121523986628043
   295   6      9.1236344594303187      10.044253565081224      4.8030227579967137
   296   6      9.0281624577454007      10.081223819575515      10.030668682948692
   297   6       1.909818125400581     0.86503283246080609     0.77953034317608361
   298   6      1.8725269154210213     0.77762353611956536      6.3806261832211311
   299   6      1.8777981733585707      6.2513180941436053     0.81620276362043898
   300   6      1.8737203665679425      6.2555153804409267       6.237392197706936
   301   6      7.3350381349414011     0.79830326366385118     0.78684233169102924
   302   6      7.3467768190225211     0.85910401208671761       6.206473036003759
   303   6      7.4127046623331374      6.2960876761093756     0.84018419903860886
   304   6      7.4357359168178538      6.2811319126809844      6.2755289340479594
   305   6      3.6148181501659198     0.81480826421119246     0.73911692952058716
   306   6      3.5641134199247166     0.75026468365896004      6.3419156951864322
   307   6      3.5766986621232459      6.2747687102367147     0.80559114206318316
   308   6      3.5441993139444676      6.2540255733362944      6.2879405257638057
   309   6      9.0479809814514436      0.8143763933841085     0.82975245130315667
   310   6      9.1379085164896026     0.85338552778501842      6.0742218358343676
   311   6       9.078178409616708      6.2510466199388253     0.83192189072365152
   312   6      9.1319327049189329      6.1995691498032972      6.2458058621805961
   313   6      1.7435326777804174      4.4347555551280715      4.6720940391820696
   314   6      1.9436208285106427      4.6149545933089851      10.084693517048239
   315   6      1.9446967017993226      10.090378874984717      4.6765011051459764
   316   6      2.0532382611114444      10.080152562859219      10.013204187190247
   317   6      7.4669202158377681      4.5658967019837231      4.6188526179857625
   318   6      7.4772787624357981      4.5704837327320513      10.094241271960708
   319   6      7.4502066888239868      10.110045019358031      4.6186339004596348
   320   6       7.372452339447368      10.083725760281869       10.09007379852715
