
     Program PHONON v.6.8 starts on 22Jul2022 at  9:42: 0 

     This program is part of the open-source Quantum ESPRESSO suite
     for quantum simulation of materials; please cite
         "P. Giannozzi et al., J. Phys.:Condens. Matter 21 395502 (2009);
         "P. Giannozzi et al., J. Phys.:Condens. Matter 29 465901 (2017);
         "P. Giannozzi et al., J. Chem. Phys. 152 154105 (2020);
          URL http://www.quantum-espresso.org", 
     in publications or presentations arising from this work. More details at
     http://www.quantum-espresso.org/quote

     Parallel version (MPI), running on    48 processors

     MPI processes distributed on     1 nodes
     K-points division:     npool     =       4
     R & G space division:  proc/nbgrp/npool/nimage =      12
     188595 MiB available memory on the printing compute node when the environment starts
 
     Waiting for input...
     Reading input from standard input

     Reading xml data from directory:

     ./tmp/Ca1H6.save/

     IMPORTANT: XC functional enforced from input :
     Exchange-correlation= PBE
                           (   1   4   3   4   0   0   0)
     Any further DFT definition will be discarded
     Please, verify this is what you really want

 
     Parallelization info
     --------------------
     sticks:   dense  smooth     PW     G-vecs:    dense   smooth      PW
     Min         139      46     17                 3602      698     155
     Max         140      47     18                 3604      701     157
     Sum        1669     557    205                43227     8391    1865
 
     Using Slab Decomposition
 
     Reading collected, re-writing distributed wavefunctions

     Saving dvscf to file. Distribute only q points, not irreducible represetations.

     Calculation of q =    0.4330127   0.4330127   0.4330127

     Subspace diagonalization in iterative solution of the eigenvalue problem:
     a serial algorithm will be used

 
     Parallelization info
     --------------------
     sticks:   dense  smooth     PW     G-vecs:    dense   smooth      PW
     Min         139      46     18                 3602      698     165
     Max         140      47     19                 3604      701     167
     Sum        1669     557    217                43227     8391    1985
 
     Using Slab Decomposition
 

     Title: 
     Electron-phonon coefficients for Ca1H6                                     


     bravais-lattice index     =            0
     lattice parameter (alat)  =       5.5613  a.u.
     unit-cell volume          =     132.4087 (a.u.)^3
     number of atoms/cell      =            7
     number of atomic types    =            2
     number of electrons       =        16.00
     number of Kohn-Sham states=           12
     kinetic-energy cutoff     =      60.0000  Ry
     charge density cutoff     =     720.0000  Ry
     Exchange-correlation= PBE
                           (   1   4   3   4   0   0   0)

     celldm(1)=   5.561340  celldm(2)=   0.000000  celldm(3)=   0.000000
     celldm(4)=   0.000000  celldm(5)=   0.000000  celldm(6)=   0.000000

     crystal axes: (cart. coord. in units of alat)
               a(1) = (  -0.577350   0.577350   0.577350 )  
               a(2) = (   0.577350  -0.577350   0.577350 )  
               a(3) = (   0.577350   0.577350  -0.577350 )  

     reciprocal axes: (cart. coord. in units 2 pi/alat)
               b(1) = ( -0.000000  0.866025  0.866025 )  
               b(2) = (  0.866025 -0.000000  0.866025 )  
               b(3) = (  0.866025  0.866025  0.000000 )  


     PseudoPot. # 1 for Ca read from file:
     /work/home/mayuan/code/my_script/scripts_tests/out2/200.0/pp/ca_pbe_v1.uspp.F.UPF
     MD5 check sum: 403a4c14b9e4d4dfdc3024c9a3812218
     Pseudo is Ultrasoft + core correction, Zval = 10.0
     Generated by new atomic code, or converted to UPF format
     Using radial grid of  845 points,  6 beta functions with: 
                l(1) =   0
                l(2) =   0
                l(3) =   1
                l(4) =   1
                l(5) =   2
                l(6) =   2
     Q(r) pseudized with  8 coefficients,  rinner =    1.500   1.500   1.500
                                                       1.500   1.500

     PseudoPot. # 2 for H  read from file:
     /work/home/mayuan/code/my_script/scripts_tests/out2/200.0/pp/h_pbe_v1.uspp.F.UPF
     MD5 check sum: 3408e3ff4ec8b0a4e358431e7e038a48
     Pseudo is Ultrasoft, Zval =  1.0
     Generated by new atomic code, or converted to UPF format
     Using radial grid of  615 points,  2 beta functions with: 
                l(1) =   0
                l(2) =   0
     Q(r) pseudized with  8 coefficients,  rinner =    0.700

     atomic species   valence    mass     pseudopotential
        Ca            10.00    40.07800     Ca( 1.00)
        H              1.00     1.00794     H ( 1.00)

     48 Sym. Ops., with inversion, found



   Cartesian axes

     site n.     atom                  positions (alat units)
         1           Ca  tau(   1) = (   0.0000000   0.0000000   0.0000000  )
         2           H   tau(   2) = (   0.2886751   0.0000000   0.5773503  )
         3           H   tau(   3) = (   0.2886751   0.5773503   0.0000000  )
         4           H   tau(   4) = (   0.5773503   0.2886751   0.0000000  )
         5           H   tau(   5) = (   0.0000000   0.2886751   0.5773503  )
         6           H   tau(   6) = (   0.0000000   0.5773503   0.2886751  )
         7           H   tau(   7) = (   0.5773503   0.0000000   0.2886751  )

     number of k points=   490  Methfessel-Paxton smearing, width (Ry)=  0.0200

     Number of k-points >= 100: set verbosity='high' to print them.

     Dense  grid:    43227 G-vectors     FFT dimensions: (  48,  48,  48)

     Smooth grid:     8391 G-vectors     FFT dimensions: (  27,  27,  27)

     Estimated max dynamical RAM per process >       8.40 MB

     Estimated total dynamical RAM >     403.02 MB

     The potential is recalculated from file :
     ./tmp/_ph0/Ca1H6.save/charge-density

     Starting wfcs are   16 atomic wfcs

     Band Structure Calculation
     Davidson diagonalization with overlap

     ethr =  6.25E-11,  avg # of iterations = 14.6

     total cpu time spent up to now is        4.4 secs

     End of band structure calculation

     Number of k-points >= 100: set verbosity='high' to print the bands.

     the Fermi energy is    17.0980 ev

     Writing output data file ./tmp/_ph0/Ca1H6.save/

     Electron-phonon coefficients for Ca1H6                                     

     bravais-lattice index     =            0
     lattice parameter (alat)  =       5.5613  a.u.
     unit-cell volume          =     132.4087 (a.u.)^3
     number of atoms/cell      =            7
     number of atomic types    =            2
     kinetic-energy cut-off    =      60.0000  Ry
     charge density cut-off    =     720.0000  Ry
     convergence threshold     =      1.0E-16
     beta                      =       0.7000
     number of iterations used =            4
     Exchange-correlation= PBE
                           (   1   4   3   4   0   0   0)


     celldm(1)=    5.56134  celldm(2)=    0.00000  celldm(3)=    0.00000
     celldm(4)=    0.00000  celldm(5)=    0.00000  celldm(6)=    0.00000

     crystal axes: (cart. coord. in units of alat)
               a(1) = ( -0.5774  0.5774  0.5774 )  
               a(2) = (  0.5774 -0.5774  0.5774 )  
               a(3) = (  0.5774  0.5774 -0.5774 )  

     reciprocal axes: (cart. coord. in units 2 pi/alat)
               b(1) = ( -0.0000  0.8660  0.8660 )  
               b(2) = (  0.8660 -0.0000  0.8660 )  
               b(3) = (  0.8660  0.8660  0.0000 )  


     Atoms inside the unit cell: 

     Cartesian axes

     site n.  atom      mass           positions (alat units)
        1     Ca  40.0780   tau(    1) = (    0.00000    0.00000    0.00000  )
        2     H    1.0079   tau(    2) = (    0.28868    0.00000    0.57735  )
        3     H    1.0079   tau(    3) = (    0.28868    0.57735    0.00000  )
        4     H    1.0079   tau(    4) = (    0.57735    0.28868    0.00000  )
        5     H    1.0079   tau(    5) = (    0.00000    0.28868    0.57735  )
        6     H    1.0079   tau(    6) = (    0.00000    0.57735    0.28868  )
        7     H    1.0079   tau(    7) = (    0.57735    0.00000    0.28868  )

     Computing dynamical matrix for 
                    q = (   0.4330127   0.4330127   0.4330127 )
 
     24 Sym.Ops. (no q -> -q+G )


     G cutoff =  564.0682  (   3604 G-vectors)     FFT grid: ( 48, 48, 48)
     G cutoff =  188.0227  (    699 G-vectors)  smooth grid: ( 27, 27, 27)

     number of k points=   490  Methfessel-Paxton smearing, width (Ry)=  0.0200

     PseudoPot. # 1 for Ca read from file:
     /work/home/mayuan/code/my_script/scripts_tests/out2/200.0/pp/ca_pbe_v1.uspp.F.UPF
     MD5 check sum: 403a4c14b9e4d4dfdc3024c9a3812218
     Pseudo is Ultrasoft + core correction, Zval = 10.0
     Generated by new atomic code, or converted to UPF format
     Using radial grid of  845 points,  6 beta functions with: 
                l(1) =   0
                l(2) =   0
                l(3) =   1
                l(4) =   1
                l(5) =   2
                l(6) =   2
     Q(r) pseudized with  8 coefficients,  rinner =    1.500   1.500   1.500
                                                       1.500   1.500

     PseudoPot. # 2 for H  read from file:
     /work/home/mayuan/code/my_script/scripts_tests/out2/200.0/pp/h_pbe_v1.uspp.F.UPF
     MD5 check sum: 3408e3ff4ec8b0a4e358431e7e038a48
     Pseudo is Ultrasoft, Zval =  1.0
     Generated by new atomic code, or converted to UPF format
     Using radial grid of  615 points,  2 beta functions with: 
                l(1) =   0
                l(2) =   0
     Q(r) pseudized with  8 coefficients,  rinner =    0.700

     Mode symmetry, T_d (-43m)  point group:


     Atomic displacements:
     There are    9 irreducible representations

     Representation     1      1 modes -  To be done

     Representation     2      1 modes -  To be done

     Representation     3      2 modes -  To be done

     Representation     4      2 modes -  To be done

     Representation     5      3 modes -  To be done

     Representation     6      3 modes -  To be done

     Representation     7      3 modes -  To be done

     Representation     8      3 modes -  To be done

     Representation     9      3 modes -  To be done



     Alpha used in Ewald sum =   2.8000
     PHONON       :      8.21s CPU     13.68s WALL



     Representation #   1 mode #   1

     Self-consistent Calculation

      iter #   1 total cpu time :    16.0 secs   av.it.:   4.1
      thresh= 1.000E-02 alpha_mix =  0.700 |ddv_scf|^2 =  3.103E-06

      iter #   2 total cpu time :    21.4 secs   av.it.:   8.6
      thresh= 1.762E-04 alpha_mix =  0.700 |ddv_scf|^2 =  2.382E-06

      iter #   3 total cpu time :    26.7 secs   av.it.:   8.3
      thresh= 1.543E-04 alpha_mix =  0.700 |ddv_scf|^2 =  2.771E-09

      iter #   4 total cpu time :    32.2 secs   av.it.:   8.6
      thresh= 5.264E-06 alpha_mix =  0.700 |ddv_scf|^2 =  3.932E-11

      iter #   5 total cpu time :    38.0 secs   av.it.:   8.4
      thresh= 6.271E-07 alpha_mix =  0.700 |ddv_scf|^2 =  1.473E-13

      iter #   6 total cpu time :    44.8 secs   av.it.:   8.2
      thresh= 3.838E-08 alpha_mix =  0.700 |ddv_scf|^2 =  3.752E-15

      iter #   7 total cpu time :    51.1 secs   av.it.:   8.7
      thresh= 6.126E-09 alpha_mix =  0.700 |ddv_scf|^2 =  3.142E-16

      iter #   8 total cpu time :    56.3 secs   av.it.:   8.4
      thresh= 1.773E-09 alpha_mix =  0.700 |ddv_scf|^2 =  1.360E-17

     End of self-consistent calculation

     Convergence has been achieved 


     Representation #   2 mode #   2

     Self-consistent Calculation

      iter #   1 total cpu time :    60.7 secs   av.it.:   2.3
      thresh= 1.000E-02 alpha_mix =  0.700 |ddv_scf|^2 =  4.161E-09

      iter #   2 total cpu time :    64.5 secs   av.it.:   7.4
      thresh= 6.451E-06 alpha_mix =  0.700 |ddv_scf|^2 =  3.946E-10

      iter #   3 total cpu time :    68.1 secs   av.it.:   5.4
      thresh= 1.986E-06 alpha_mix =  0.700 |ddv_scf|^2 =  1.357E-13

      iter #   4 total cpu time :    71.4 secs   av.it.:   6.4
      thresh= 3.684E-08 alpha_mix =  0.700 |ddv_scf|^2 =  9.768E-16

      iter #   5 total cpu time :    75.0 secs   av.it.:   5.2
      thresh= 3.125E-09 alpha_mix =  0.700 |ddv_scf|^2 =  5.042E-18

     End of self-consistent calculation

     Convergence has been achieved 


     Representation #   3 modes #   3   4

     Self-consistent Calculation

      iter #   1 total cpu time :    81.8 secs   av.it.:   3.8
      thresh= 1.000E-02 alpha_mix =  0.700 |ddv_scf|^2 =  6.696E-09

      iter #   2 total cpu time :    88.5 secs   av.it.:   9.7
      thresh= 8.183E-06 alpha_mix =  0.700 |ddv_scf|^2 =  2.183E-10

      iter #   3 total cpu time :    96.4 secs   av.it.:   9.7
      thresh= 1.477E-06 alpha_mix =  0.700 |ddv_scf|^2 =  4.091E-12

      iter #   4 total cpu time :   104.4 secs   av.it.:   9.5
      thresh= 2.023E-07 alpha_mix =  0.700 |ddv_scf|^2 =  1.728E-14

      iter #   5 total cpu time :   111.1 secs   av.it.:   9.8
      thresh= 1.315E-08 alpha_mix =  0.700 |ddv_scf|^2 =  6.955E-17

     End of self-consistent calculation

     Convergence has been achieved 


     Representation #   4 modes #   5   6

     Self-consistent Calculation

      iter #   1 total cpu time :   122.8 secs   av.it.:   3.5
      thresh= 1.000E-02 alpha_mix =  0.700 |ddv_scf|^2 =  4.317E-09

      iter #   2 total cpu time :   129.9 secs   av.it.:   9.8
      thresh= 6.570E-06 alpha_mix =  0.700 |ddv_scf|^2 =  1.593E-10

      iter #   3 total cpu time :   137.4 secs   av.it.:   9.6
      thresh= 1.262E-06 alpha_mix =  0.700 |ddv_scf|^2 =  3.404E-12

      iter #   4 total cpu time :   145.6 secs   av.it.:   9.3
      thresh= 1.845E-07 alpha_mix =  0.700 |ddv_scf|^2 =  7.826E-15

      iter #   5 total cpu time :   152.4 secs   av.it.:   9.8
      thresh= 8.846E-09 alpha_mix =  0.700 |ddv_scf|^2 =  7.028E-17

     End of self-consistent calculation

     Convergence has been achieved 


     Representation #   5 modes #   7   8   9

     Self-consistent Calculation

      iter #   1 total cpu time :   164.6 secs   av.it.:   3.3
      thresh= 1.000E-02 alpha_mix =  0.700 |ddv_scf|^2 =  1.873E-09

      iter #   2 total cpu time :   174.2 secs   av.it.:  10.2
      thresh= 4.328E-06 alpha_mix =  0.700 |ddv_scf|^2 =  4.311E-11

      iter #   3 total cpu time :   183.4 secs   av.it.:   9.4
      thresh= 6.566E-07 alpha_mix =  0.700 |ddv_scf|^2 =  2.972E-12

      iter #   4 total cpu time :   193.5 secs   av.it.:   9.5
      thresh= 1.724E-07 alpha_mix =  0.700 |ddv_scf|^2 =  4.263E-15

      iter #   5 total cpu time :   204.6 secs   av.it.:  10.2
      thresh= 6.529E-09 alpha_mix =  0.700 |ddv_scf|^2 =  1.598E-17

     End of self-consistent calculation

     Convergence has been achieved 


     Representation #   6 modes #  10  11  12

     Self-consistent Calculation

      iter #   1 total cpu time :   219.7 secs   av.it.:   3.5
      thresh= 1.000E-02 alpha_mix =  0.700 |ddv_scf|^2 =  2.054E-09

      iter #   2 total cpu time :   229.1 secs   av.it.:  10.3
      thresh= 4.532E-06 alpha_mix =  0.700 |ddv_scf|^2 =  6.022E-11

      iter #   3 total cpu time :   238.7 secs   av.it.:   9.8
      thresh= 7.760E-07 alpha_mix =  0.700 |ddv_scf|^2 =  3.052E-12

      iter #   4 total cpu time :   249.2 secs   av.it.:   9.8
      thresh= 1.747E-07 alpha_mix =  0.700 |ddv_scf|^2 =  1.019E-14

      iter #   5 total cpu time :   259.2 secs   av.it.:  10.3
      thresh= 1.009E-08 alpha_mix =  0.700 |ddv_scf|^2 =  3.685E-17

     End of self-consistent calculation

     Convergence has been achieved 


     Representation #   7 modes #  13  14  15

     Self-consistent Calculation

      iter #   1 total cpu time :   272.6 secs   av.it.:   4.2
      thresh= 1.000E-02 alpha_mix =  0.700 |ddv_scf|^2 =  1.660E-07

      iter #   2 total cpu time :   284.1 secs   av.it.:  10.5
      thresh= 4.074E-05 alpha_mix =  0.700 |ddv_scf|^2 =  1.802E-07

      iter #   3 total cpu time :   295.0 secs   av.it.:  10.0
      thresh= 4.245E-05 alpha_mix =  0.700 |ddv_scf|^2 =  7.335E-11

      iter #   4 total cpu time :   305.3 secs   av.it.:  10.3
      thresh= 8.565E-07 alpha_mix =  0.700 |ddv_scf|^2 =  5.464E-13

      iter #   5 total cpu time :   316.7 secs   av.it.:  10.5
      thresh= 7.392E-08 alpha_mix =  0.700 |ddv_scf|^2 =  1.913E-14

      iter #   6 total cpu time :   326.3 secs   av.it.:  10.9
      thresh= 1.383E-08 alpha_mix =  0.700 |ddv_scf|^2 =  6.241E-16

      iter #   7 total cpu time :   335.7 secs   av.it.:  10.7
      thresh= 2.498E-09 alpha_mix =  0.700 |ddv_scf|^2 =  3.698E-17

     End of self-consistent calculation

     Convergence has been achieved 


     Representation #   8 modes #  16  17  18

     Self-consistent Calculation

      iter #   1 total cpu time :   347.5 secs   av.it.:   4.1
      thresh= 1.000E-02 alpha_mix =  0.700 |ddv_scf|^2 =  9.328E-08

      iter #   2 total cpu time :   357.9 secs   av.it.:  10.6
      thresh= 3.054E-05 alpha_mix =  0.700 |ddv_scf|^2 =  1.023E-07

      iter #   3 total cpu time :   367.5 secs   av.it.:  10.0
      thresh= 3.198E-05 alpha_mix =  0.700 |ddv_scf|^2 =  5.834E-11

      iter #   4 total cpu time :   377.5 secs   av.it.:  10.6
      thresh= 7.638E-07 alpha_mix =  0.700 |ddv_scf|^2 =  1.188E-12

      iter #   5 total cpu time :   388.0 secs   av.it.:  10.8
      thresh= 1.090E-07 alpha_mix =  0.700 |ddv_scf|^2 =  1.044E-13

      iter #   6 total cpu time :   397.9 secs   av.it.:  10.6
      thresh= 3.232E-08 alpha_mix =  0.700 |ddv_scf|^2 =  7.126E-16

      iter #   7 total cpu time :   408.3 secs   av.it.:  10.4
      thresh= 2.669E-09 alpha_mix =  0.700 |ddv_scf|^2 =  3.455E-17

     End of self-consistent calculation

     Convergence has been achieved 


     Representation #   9 modes #  19  20  21

     Self-consistent Calculation

      iter #   1 total cpu time :   422.5 secs   av.it.:   6.7
      thresh= 1.000E-02 alpha_mix =  0.700 |ddv_scf|^2 =  6.729E-06

      iter #   2 total cpu time :   432.7 secs   av.it.:  10.6
      thresh= 2.594E-04 alpha_mix =  0.700 |ddv_scf|^2 =  7.484E-06

      iter #   3 total cpu time :   444.5 secs   av.it.:   9.8
      thresh= 2.736E-04 alpha_mix =  0.700 |ddv_scf|^2 =  2.538E-09

      iter #   4 total cpu time :   457.3 secs   av.it.:  10.8
      thresh= 5.038E-06 alpha_mix =  0.700 |ddv_scf|^2 =  1.780E-10

      iter #   5 total cpu time :   469.6 secs   av.it.:  10.2
      thresh= 1.334E-06 alpha_mix =  0.700 |ddv_scf|^2 =  4.062E-13

      iter #   6 total cpu time :   480.7 secs   av.it.:  10.3
      thresh= 6.374E-08 alpha_mix =  0.700 |ddv_scf|^2 =  2.097E-14

      iter #   7 total cpu time :   490.5 secs   av.it.:  10.3
      thresh= 1.448E-08 alpha_mix =  0.700 |ddv_scf|^2 =  1.134E-15

      iter #   8 total cpu time :   499.5 secs   av.it.:  10.1
      thresh= 3.368E-09 alpha_mix =  0.700 |ddv_scf|^2 =  7.583E-17

     End of self-consistent calculation

     Convergence has been achieved 
 
     Number of q in the star =    2
     List of q in the star:
          1   0.433012700   0.433012700   0.433012700
          2  -0.433012700  -0.433012700  -0.433012700

     Diagonalizing the dynamical matrix

     q = (    0.433012700   0.433012700   0.433012700 ) 

 **************************************************************************
     freq (    1) =      10.497623 [THz] =     350.163017 [cm-1]
     freq (    2) =      10.497623 [THz] =     350.163018 [cm-1]
     freq (    3) =      10.497623 [THz] =     350.163018 [cm-1]
     freq (    4) =      27.624823 [THz] =     921.464922 [cm-1]
     freq (    5) =      27.624823 [THz] =     921.464922 [cm-1]
     freq (    6) =      33.147308 [THz] =    1105.675172 [cm-1]
     freq (    7) =      33.147308 [THz] =    1105.675172 [cm-1]
     freq (    8) =      33.147308 [THz] =    1105.675173 [cm-1]
     freq (    9) =      38.566740 [THz] =    1286.447965 [cm-1]
     freq (   10) =      38.566740 [THz] =    1286.447966 [cm-1]
     freq (   11) =      38.566740 [THz] =    1286.447966 [cm-1]
     freq (   12) =      43.472858 [THz] =    1450.098467 [cm-1]
     freq (   13) =      43.472858 [THz] =    1450.098467 [cm-1]
     freq (   14) =      43.940168 [THz] =    1465.686254 [cm-1]
     freq (   15) =      46.567125 [THz] =    1553.312091 [cm-1]
     freq (   16) =      46.567125 [THz] =    1553.312092 [cm-1]
     freq (   17) =      46.567125 [THz] =    1553.312092 [cm-1]
     freq (   18) =      47.420544 [THz] =    1581.779087 [cm-1]
     freq (   19) =      49.551015 [THz] =    1652.843958 [cm-1]
     freq (   20) =      49.551015 [THz] =    1652.843960 [cm-1]
     freq (   21) =      49.551015 [THz] =    1652.843960 [cm-1]
 **************************************************************************

     Mode symmetry, T_d (-43m)  point group:

     freq (   1-   3) =        350.2  [cm-1]   --> T_2  G_15 P_4      
     freq (   4-   5) =        921.5  [cm-1]   --> E    G_12 P_3      
     freq (   6-   8) =       1105.7  [cm-1]   --> T_2  G_15 P_4      
     freq (   9-  11) =       1286.4  [cm-1]   --> T_1  G_25 P_5      
     freq (  12-  13) =       1450.1  [cm-1]   --> E    G_12 P_3      
     freq (  14-  14) =       1465.7  [cm-1]   --> A_1  G_1  P_1      
     freq (  15-  17) =       1553.3  [cm-1]   --> T_1  G_25 P_5      
     freq (  18-  18) =       1581.8  [cm-1]   --> A_2  G_2  P_2      
     freq (  19-  21) =       1652.8  [cm-1]   --> T_2  G_15 P_4      
     electron-phonon interaction  ...

     Gaussian Broadening:   0.005 Ry, ngauss=   0
     DOS =  1.900675 states/spin/Ry/Unit Cell at Ef= 17.155196 eV
     lambda(    1)=  0.0274   gamma=    5.48 GHz
     lambda(    2)=  0.0254   gamma=    5.08 GHz
     lambda(    3)=  0.0253   gamma=    5.07 GHz
     lambda(    4)=  0.7080   gamma=  980.69 GHz
     lambda(    5)=  0.7700   gamma= 1066.53 GHz
     lambda(    6)=  0.4825   gamma=  962.18 GHz
     lambda(    7)=  0.4865   gamma=  970.11 GHz
     lambda(    8)=  0.4974   gamma=  991.85 GHz
     lambda(    9)=  0.0570   gamma=  153.83 GHz
     lambda(   10)=  0.0608   gamma=  164.06 GHz
     lambda(   11)=  0.0606   gamma=  163.55 GHz
     lambda(   12)=  0.0059   gamma=   20.25 GHz
     lambda(   13)=  0.0052   gamma=   17.91 GHz
     lambda(   14)=  1.2554   gamma= 4399.38 GHz
     lambda(   15)=  0.0351   gamma=  138.20 GHz
     lambda(   16)=  0.0367   gamma=  144.55 GHz
     lambda(   17)=  0.0368   gamma=  144.89 GHz
     lambda(   18)=  0.0001   gamma=    0.41 GHz
     lambda(   19)=  0.0592   gamma=  263.99 GHz
     lambda(   20)=  0.0593   gamma=  264.40 GHz
     lambda(   21)=  0.0593   gamma=  264.43 GHz
     Gaussian Broadening:   0.010 Ry, ngauss=   0
     DOS =  2.130656 states/spin/Ry/Unit Cell at Ef= 17.149400 eV
     lambda(    1)=  0.0221   gamma=    4.96 GHz
     lambda(    2)=  0.0214   gamma=    4.80 GHz
     lambda(    3)=  0.0215   gamma=    4.82 GHz
     lambda(    4)=  0.6883   gamma= 1068.73 GHz
     lambda(    5)=  0.7252   gamma= 1125.95 GHz
     lambda(    6)=  0.3544   gamma=  792.29 GHz
     lambda(    7)=  0.3538   gamma=  790.92 GHz
     lambda(    8)=  0.3584   gamma=  801.21 GHz
     lambda(    9)=  0.0501   gamma=  151.57 GHz
     lambda(   10)=  0.0513   gamma=  155.13 GHz
     lambda(   11)=  0.0513   gamma=  155.37 GHz
     lambda(   12)=  0.0051   gamma=   19.78 GHz
     lambda(   13)=  0.0049   gamma=   18.73 GHz
     lambda(   14)=  0.4749   gamma= 1865.51 GHz
     lambda(   15)=  0.0301   gamma=  132.73 GHz
     lambda(   16)=  0.0320   gamma=  141.32 GHz
     lambda(   17)=  0.0320   gamma=  141.17 GHz
     lambda(   18)=  0.0001   gamma=    0.35 GHz
     lambda(   19)=  0.0309   gamma=  154.24 GHz
     lambda(   20)=  0.0307   gamma=  153.57 GHz
     lambda(   21)=  0.0308   gamma=  153.68 GHz
     Gaussian Broadening:   0.015 Ry, ngauss=   0
     DOS =  2.235086 states/spin/Ry/Unit Cell at Ef= 17.146382 eV
     lambda(    1)=  0.0214   gamma=    5.03 GHz
     lambda(    2)=  0.0211   gamma=    4.97 GHz
     lambda(    3)=  0.0213   gamma=    5.01 GHz
     lambda(    4)=  0.6679   gamma= 1087.92 GHz
     lambda(    5)=  0.7079   gamma= 1153.00 GHz
     lambda(    6)=  0.3051   gamma=  715.48 GHz
     lambda(    7)=  0.3031   gamma=  710.86 GHz
     lambda(    8)=  0.3031   gamma=  710.79 GHz
     lambda(    9)=  0.0469   gamma=  148.98 GHz
     lambda(   10)=  0.0468   gamma=  148.43 GHz
     lambda(   11)=  0.0470   gamma=  149.11 GHz
     lambda(   12)=  0.0051   gamma=   20.69 GHz
     lambda(   13)=  0.0050   gamma=   20.04 GHz
     lambda(   14)=  0.2430   gamma= 1001.19 GHz
     lambda(   15)=  0.0293   gamma=  135.74 GHz
     lambda(   16)=  0.0301   gamma=  139.45 GHz
     lambda(   17)=  0.0300   gamma=  138.87 GHz
     lambda(   18)=  0.0001   gamma=    0.37 GHz
     lambda(   19)=  0.0221   gamma=  115.98 GHz
     lambda(   20)=  0.0223   gamma=  116.79 GHz
     lambda(   21)=  0.0223   gamma=  116.83 GHz
     Gaussian Broadening:   0.020 Ry, ngauss=   0
     DOS =  2.290454 states/spin/Ry/Unit Cell at Ef= 17.145317 eV
     lambda(    1)=  0.0230   gamma=    5.55 GHz
     lambda(    2)=  0.0229   gamma=    5.51 GHz
     lambda(    3)=  0.0230   gamma=    5.55 GHz
     lambda(    4)=  0.6547   gamma= 1092.83 GHz
     lambda(    5)=  0.6924   gamma= 1155.79 GHz
     lambda(    6)=  0.2923   gamma=  702.36 GHz
     lambda(    7)=  0.2908   gamma=  698.81 GHz
     lambda(    8)=  0.2890   gamma=  694.60 GHz
     lambda(    9)=  0.0457   gamma=  148.56 GHz
     lambda(   10)=  0.0451   gamma=  146.76 GHz
     lambda(   11)=  0.0453   gamma=  147.38 GHz
     lambda(   12)=  0.0049   gamma=   20.06 GHz
     lambda(   13)=  0.0047   gamma=   19.51 GHz
     lambda(   14)=  0.1686   gamma=  712.08 GHz
     lambda(   15)=  0.0287   gamma=  135.97 GHz
     lambda(   16)=  0.0289   gamma=  137.03 GHz
     lambda(   17)=  0.0288   gamma=  136.42 GHz
     lambda(   18)=  0.0001   gamma=    0.38 GHz
     lambda(   19)=  0.0192   gamma=  103.05 GHz
     lambda(   20)=  0.0195   gamma=  104.56 GHz
     lambda(   21)=  0.0195   gamma=  104.55 GHz
     Gaussian Broadening:   0.025 Ry, ngauss=   0
     DOS =  2.332190 states/spin/Ry/Unit Cell at Ef= 17.144758 eV
     lambda(    1)=  0.0249   gamma=    6.12 GHz
     lambda(    2)=  0.0247   gamma=    6.06 GHz
     lambda(    3)=  0.0248   gamma=    6.10 GHz
     lambda(    4)=  0.6430   gamma= 1092.83 GHz
     lambda(    5)=  0.6777   gamma= 1151.73 GHz
     lambda(    6)=  0.2835   gamma=  693.77 GHz
     lambda(    7)=  0.2829   gamma=  692.31 GHz
     lambda(    8)=  0.2806   gamma=  686.53 GHz
     lambda(    9)=  0.0442   gamma=  146.43 GHz
     lambda(   10)=  0.0437   gamma=  144.61 GHz
     lambda(   11)=  0.0438   gamma=  145.04 GHz
     lambda(   12)=  0.0047   gamma=   19.63 GHz
     lambda(   13)=  0.0045   gamma=   19.07 GHz
     lambda(   14)=  0.1385   gamma=  595.39 GHz
     lambda(   15)=  0.0278   gamma=  134.42 GHz
     lambda(   16)=  0.0278   gamma=  134.25 GHz
     lambda(   17)=  0.0277   gamma=  133.74 GHz
     lambda(   18)=  0.0001   gamma=    0.40 GHz
     lambda(   19)=  0.0178   gamma=   97.60 GHz
     lambda(   20)=  0.0182   gamma=   99.25 GHz
     lambda(   21)=  0.0181   gamma=   99.21 GHz
     Gaussian Broadening:   0.030 Ry, ngauss=   0
     DOS =  2.360595 states/spin/Ry/Unit Cell at Ef= 17.144134 eV
     lambda(    1)=  0.0271   gamma=    6.73 GHz
     lambda(    2)=  0.0267   gamma=    6.64 GHz
     lambda(    3)=  0.0268   gamma=    6.67 GHz
     lambda(    4)=  0.6392   gamma= 1099.64 GHz
     lambda(    5)=  0.6711   gamma= 1154.40 GHz
     lambda(    6)=  0.2790   gamma=  690.91 GHz
     lambda(    7)=  0.2790   gamma=  691.07 GHz
     lambda(    8)=  0.2765   gamma=  684.81 GHz
     lambda(    9)=  0.0432   gamma=  144.96 GHz
     lambda(   10)=  0.0428   gamma=  143.48 GHz
     lambda(   11)=  0.0429   gamma=  143.75 GHz
     lambda(   12)=  0.0046   gamma=   19.57 GHz
     lambda(   13)=  0.0045   gamma=   18.99 GHz
     lambda(   14)=  0.1258   gamma=  547.74 GHz
     lambda(   15)=  0.0274   gamma=  133.91 GHz
     lambda(   16)=  0.0272   gamma=  133.15 GHz
     lambda(   17)=  0.0272   gamma=  132.74 GHz
     lambda(   18)=  0.0001   gamma=    0.44 GHz
     lambda(   19)=  0.0173   gamma=   95.96 GHz
     lambda(   20)=  0.0176   gamma=   97.54 GHz
     lambda(   21)=  0.0176   gamma=   97.50 GHz
     Gaussian Broadening:   0.035 Ry, ngauss=   0
     DOS =  2.381114 states/spin/Ry/Unit Cell at Ef= 17.143351 eV
     lambda(    1)=  0.0293   gamma=    7.35 GHz
     lambda(    2)=  0.0288   gamma=    7.23 GHz
     lambda(    3)=  0.0289   gamma=    7.25 GHz
     lambda(    4)=  0.6397   gamma= 1110.04 GHz
     lambda(    5)=  0.6683   gamma= 1159.64 GHz
     lambda(    6)=  0.2776   gamma=  693.65 GHz
     lambda(    7)=  0.2781   gamma=  694.68 GHz
     lambda(    8)=  0.2756   gamma=  688.51 GHz
     lambda(    9)=  0.0427   gamma=  144.37 GHz
     lambda(   10)=  0.0424   gamma=  143.29 GHz
     lambda(   11)=  0.0424   gamma=  143.44 GHz
     lambda(   12)=  0.0046   gamma=   19.71 GHz
     lambda(   13)=  0.0044   gamma=   19.12 GHz
     lambda(   14)=  0.1209   gamma=  530.62 GHz
     lambda(   15)=  0.0273   gamma=  134.38 GHz
     lambda(   16)=  0.0270   gamma=  133.33 GHz
     lambda(   17)=  0.0270   gamma=  133.02 GHz
     lambda(   18)=  0.0001   gamma=    0.47 GHz
     lambda(   19)=  0.0173   gamma=   96.36 GHz
     lambda(   20)=  0.0175   gamma=   97.80 GHz
     lambda(   21)=  0.0175   gamma=   97.78 GHz
     Gaussian Broadening:   0.040 Ry, ngauss=   0
     DOS =  2.398900 states/spin/Ry/Unit Cell at Ef= 17.142416 eV
     lambda(    1)=  0.0315   gamma=    7.94 GHz
     lambda(    2)=  0.0309   gamma=    7.79 GHz
     lambda(    3)=  0.0310   gamma=    7.81 GHz
     lambda(    4)=  0.6407   gamma= 1120.06 GHz
     lambda(    5)=  0.6656   gamma= 1163.59 GHz
     lambda(    6)=  0.2781   gamma=  700.06 GHz
     lambda(    7)=  0.2787   gamma=  701.41 GHz
     lambda(    8)=  0.2764   gamma=  695.62 GHz
     lambda(    9)=  0.0424   gamma=  144.32 GHz
     lambda(   10)=  0.0421   gamma=  143.59 GHz
     lambda(   11)=  0.0422   gamma=  143.66 GHz
     lambda(   12)=  0.0046   gamma=   19.99 GHz
     lambda(   13)=  0.0045   gamma=   19.44 GHz
     lambda(   14)=  0.1191   gamma=  526.93 GHz
     lambda(   15)=  0.0273   gamma=  135.47 GHz
     lambda(   16)=  0.0270   gamma=  134.26 GHz
     lambda(   17)=  0.0270   gamma=  134.02 GHz
     lambda(   18)=  0.0001   gamma=    0.52 GHz
     lambda(   19)=  0.0174   gamma=   98.00 GHz
     lambda(   20)=  0.0177   gamma=   99.29 GHz
     lambda(   21)=  0.0177   gamma=   99.32 GHz
     Gaussian Broadening:   0.045 Ry, ngauss=   0
     DOS =  2.416850 states/spin/Ry/Unit Cell at Ef= 17.141341 eV
     lambda(    1)=  0.0333   gamma=    8.47 GHz
     lambda(    2)=  0.0327   gamma=    8.30 GHz
     lambda(    3)=  0.0327   gamma=    8.32 GHz
     lambda(    4)=  0.6403   gamma= 1127.69 GHz
     lambda(    5)=  0.6614   gamma= 1164.90 GHz
     lambda(    6)=  0.2794   gamma=  708.50 GHz
     lambda(    7)=  0.2799   gamma=  709.86 GHz
     lambda(    8)=  0.2779   gamma=  704.62 GHz
     lambda(    9)=  0.0421   gamma=  144.54 GHz
     lambda(   10)=  0.0420   gamma=  144.09 GHz
     lambda(   11)=  0.0420   gamma=  144.12 GHz
     lambda(   12)=  0.0047   gamma=   20.50 GHz
     lambda(   13)=  0.0046   gamma=   20.00 GHz
     lambda(   14)=  0.1186   gamma=  528.50 GHz
     lambda(   15)=  0.0274   gamma=  136.98 GHz
     lambda(   16)=  0.0271   gamma=  135.68 GHz
     lambda(   17)=  0.0271   gamma=  135.51 GHz
     lambda(   18)=  0.0001   gamma=    0.57 GHz
     lambda(   19)=  0.0178   gamma=  100.58 GHz
     lambda(   20)=  0.0180   gamma=  101.74 GHz
     lambda(   21)=  0.0180   gamma=  101.81 GHz
     Gaussian Broadening:   0.050 Ry, ngauss=   0
     DOS =  2.436152 states/spin/Ry/Unit Cell at Ef= 17.140123 eV
     lambda(    1)=  0.0348   gamma=    8.93 GHz
     lambda(    2)=  0.0341   gamma=    8.75 GHz
     lambda(    3)=  0.0342   gamma=    8.77 GHz
     lambda(    4)=  0.6377   gamma= 1132.15 GHz
     lambda(    5)=  0.6553   gamma= 1163.39 GHz
     lambda(    6)=  0.2808   gamma=  717.85 GHz
     lambda(    7)=  0.2813   gamma=  719.08 GHz
     lambda(    8)=  0.2795   gamma=  714.44 GHz
     lambda(    9)=  0.0419   gamma=  144.92 GHz
     lambda(   10)=  0.0418   gamma=  144.69 GHz
     lambda(   11)=  0.0418   gamma=  144.68 GHz
     lambda(   12)=  0.0049   gamma=   21.33 GHz
     lambda(   13)=  0.0047   gamma=   20.88 GHz
     lambda(   14)=  0.1183   gamma=  531.49 GHz
     lambda(   15)=  0.0275   gamma=  138.89 GHz
     lambda(   16)=  0.0273   gamma=  137.54 GHz
     lambda(   17)=  0.0272   gamma=  137.42 GHz
     lambda(   18)=  0.0001   gamma=    0.65 GHz
     lambda(   19)=  0.0182   gamma=  103.94 GHz
     lambda(   20)=  0.0184   gamma=  104.98 GHz
     lambda(   21)=  0.0184   gamma=  105.09 GHz
 
 
     Number of q in the star =    2
     List of q in the star:
          1   0.433012700   0.433012700   0.433012700
          2  -0.433012700  -0.433012700  -0.433012700
 
     init_run     :      0.08s CPU      0.35s WALL (       1 calls)
     electrons    :      3.63s CPU      4.03s WALL (       1 calls)

     Called by init_run:
     wfcinit      :      0.00s CPU      0.06s WALL (       1 calls)
     potinit      :      0.01s CPU      0.21s WALL (       1 calls)
     hinit0       :      0.04s CPU      0.04s WALL (       1 calls)

     Called by electrons:
     c_bands      :      3.62s CPU      4.03s WALL (       1 calls)
     v_of_rho     :      0.01s CPU      0.10s WALL (       2 calls)
     newd         :      0.01s CPU      0.06s WALL (       2 calls)

     Called by c_bands:
     init_us_2    :      0.15s CPU      0.17s WALL (    4898 calls)
     cegterg      :      1.91s CPU      2.07s WALL (     125 calls)

     Called by *egterg:
     cdiaghg      :      0.65s CPU      0.72s WALL (    1933 calls)
     h_psi        :    105.66s CPU    124.36s WALL (  107406 calls)
     s_psi        :      2.31s CPU      2.61s WALL (  220752 calls)
     g_psi        :      0.01s CPU      0.01s WALL (    1809 calls)

     Called by h_psi:
     h_psi:calbec :      2.00s CPU      2.24s WALL (  107406 calls)
     vloc_psi     :    101.61s CPU    119.82s WALL (  107406 calls)
     add_vuspsi   :      1.12s CPU      1.26s WALL (  107406 calls)

     General routines
     calbec       :     14.16s CPU     14.96s WALL (  236128 calls)
     fft          :      0.53s CPU      0.80s WALL (    2775 calls)
     ffts         :      0.47s CPU      0.56s WALL (    1793 calls)
     fftw         :    220.49s CPU    264.87s WALL ( 1531641 calls)
     interpolate  :      0.45s CPU      0.54s WALL (     281 calls)
     davcio       :      1.44s CPU     74.23s WALL (   34479 calls)
 
     Parallel routines
 
     PHONON       :   6m31.83s CPU   8m58.80s WALL

     INITIALIZATION: 
     phq_setup    :      0.01s CPU      0.07s WALL (       1 calls)
     phq_init     :      3.61s CPU      4.24s WALL (       1 calls)
 
     phq_init     :      3.61s CPU      4.24s WALL (       1 calls)
     set_drhoc    :      0.05s CPU      0.05s WALL (       3 calls)
     init_vloc    :      0.00s CPU      0.01s WALL (       2 calls)
     init_us_1    :      0.06s CPU      0.19s WALL (       2 calls)
     newd         :      0.01s CPU      0.06s WALL (       2 calls)
     dvanqq       :      0.18s CPU      0.18s WALL (       1 calls)
     drho         :      2.31s CPU      2.80s WALL (       1 calls)
 
     DYNAMICAL MATRIX:
     dynmat0      :      0.74s CPU      0.83s WALL (       1 calls)
     phqscf       :    351.30s CPU    491.87s WALL (       1 calls)
     dynmatrix    :      0.10s CPU      0.12s WALL (       1 calls)
 
     phqscf       :    351.30s CPU    491.87s WALL (       1 calls)
     solve_linter :    341.40s CPU    478.11s WALL (       9 calls)
     drhodv       :      9.88s CPU     11.95s WALL (       9 calls)
 
     dynmat0      :      0.74s CPU      0.83s WALL (       1 calls)
     dynmat_us    :      0.70s CPU      0.76s WALL (       1 calls)
     d2ionq       :      0.01s CPU      0.01s WALL (       1 calls)
     dynmatcc     :      0.04s CPU      0.04s WALL (       1 calls)
 
     dynmat_us    :      0.70s CPU      0.76s WALL (       1 calls)
     addusdynmat  :      0.00s CPU      0.00s WALL (       1 calls)
 
     phqscf       :    351.30s CPU    491.87s WALL (       1 calls)
     solve_linter :    341.40s CPU    478.11s WALL (       9 calls)
 
     solve_linter :    341.40s CPU    478.11s WALL (       9 calls)
     dvqpsi_us    :      2.00s CPU      2.17s WALL (    1302 calls)
     ortho        :     10.25s CPU     10.61s WALL (    7998 calls)
     cgsolve      :    112.61s CPU    132.23s WALL (    7998 calls)
     incdrhoscf   :     68.62s CPU     83.80s WALL (    7998 calls)
     addusddens   :      1.05s CPU      2.13s WALL (      64 calls)
     vpsifft      :     54.40s CPU     65.92s WALL (    7998 calls)
     dv_of_drho   :      0.30s CPU      0.35s WALL (     129 calls)
     mix_pot      :      8.91s CPU     26.55s WALL (      55 calls)
     psymdvscf    :     14.26s CPU     14.63s WALL (      55 calls)
     newdq        :      1.79s CPU      1.80s WALL (      55 calls)
     adddvscf     :      0.27s CPU      0.31s WALL (    7998 calls)
     drhodvus     :      2.83s CPU      4.90s WALL (       9 calls)
 
     dvqpsi_us    :      2.00s CPU      2.17s WALL (    1302 calls)
     dvqpsi_us_on :      0.78s CPU      0.83s WALL (    1302 calls)
 
     cgsolve      :    112.61s CPU    132.23s WALL (    7998 calls)
     ch_psi       :    111.24s CPU    130.68s WALL (  105348 calls)
 
     ch_psi       :    111.24s CPU    130.68s WALL (  105348 calls)
     h_psi        :    105.66s CPU    124.36s WALL (  107406 calls)
     last         :      4.44s CPU      5.00s WALL (  105348 calls)
 
     h_psi        :    105.66s CPU    124.36s WALL (  107406 calls)
     add_vuspsi   :      1.12s CPU      1.26s WALL (  107406 calls)
 
     incdrhoscf   :     68.62s CPU     83.80s WALL (    7998 calls)
     addusdbec    :      0.29s CPU      0.31s WALL (    9300 calls)
 
     drhodvus     :      2.83s CPU      4.90s WALL (       9 calls)
 
      Electron-phonon coupling
     elphel       :     12.76s CPU     21.03s WALL (       9 calls)
     elphsum      :     32.19s CPU     32.74s WALL (       1 calls)
 
      General routines
     calbec       :     14.16s CPU     14.96s WALL (  236128 calls)
     fft          :      0.53s CPU      0.80s WALL (    2775 calls)
     ffts         :      0.47s CPU      0.56s WALL (    1793 calls)
     fftw         :    220.49s CPU    264.87s WALL ( 1531641 calls)
     davcio       :      1.44s CPU     74.23s WALL (   34479 calls)
     write_rec    :      0.05s CPU      9.35s WALL (      64 calls)
 
 
     PHONON       :   6m31.83s CPU   8m58.80s WALL

 
   This run was terminated on:   9:50:59  22Jul2022            

=------------------------------------------------------------------------------=
   JOB DONE.
=------------------------------------------------------------------------------=
