
     Program PHONON v.6.8 starts on 22Jul2022 at  8: 4:32 

     This program is part of the open-source Quantum ESPRESSO suite
     for quantum simulation of materials; please cite
         "P. Giannozzi et al., J. Phys.:Condens. Matter 21 395502 (2009);
         "P. Giannozzi et al., J. Phys.:Condens. Matter 29 465901 (2017);
         "P. Giannozzi et al., J. Chem. Phys. 152 154105 (2020);
          URL http://www.quantum-espresso.org", 
     in publications or presentations arising from this work. More details at
     http://www.quantum-espresso.org/quote

     Parallel version (MPI), running on    48 processors

     MPI processes distributed on     1 nodes
     K-points division:     npool     =       4
     R & G space division:  proc/nbgrp/npool/nimage =      12
     188660 MiB available memory on the printing compute node when the environment starts
 
     Waiting for input...
     Reading input from standard input

     Reading xml data from directory:

     ./tmp/Ca1H6.save/

     IMPORTANT: XC functional enforced from input :
     Exchange-correlation= PBE
                           (   1   4   3   4   0   0   0)
     Any further DFT definition will be discarded
     Please, verify this is what you really want

 
     Parallelization info
     --------------------
     sticks:   dense  smooth     PW     G-vecs:    dense   smooth      PW
     Min         139      46     17                 3602      698     155
     Max         140      47     18                 3604      701     157
     Sum        1669     557    205                43227     8391    1865
 
     Using Slab Decomposition
 
     Reading collected, re-writing distributed wavefunctions

     Saving dvscf to file. Distribute only q points, not irreducible represetations.

     Calculation of q =    0.0000000  -0.2165064   0.4330127

     Subspace diagonalization in iterative solution of the eigenvalue problem:
     a serial algorithm will be used

 
     Parallelization info
     --------------------
     sticks:   dense  smooth     PW     G-vecs:    dense   smooth      PW
     Min         139      46     17                 3602      698     155
     Max         140      47     18                 3604      701     157
     Sum        1669     557    205                43227     8391    1865
 
     Using Slab Decomposition
 

     Title: 
     Electron-phonon coefficients for Ca1H6                                     


     bravais-lattice index     =            0
     lattice parameter (alat)  =       5.5613  a.u.
     unit-cell volume          =     132.4087 (a.u.)^3
     number of atoms/cell      =            7
     number of atomic types    =            2
     number of electrons       =        16.00
     number of Kohn-Sham states=           12
     kinetic-energy cutoff     =      60.0000  Ry
     charge density cutoff     =     720.0000  Ry
     Exchange-correlation= PBE
                           (   1   4   3   4   0   0   0)

     celldm(1)=   5.561340  celldm(2)=   0.000000  celldm(3)=   0.000000
     celldm(4)=   0.000000  celldm(5)=   0.000000  celldm(6)=   0.000000

     crystal axes: (cart. coord. in units of alat)
               a(1) = (  -0.577350   0.577350   0.577350 )  
               a(2) = (   0.577350  -0.577350   0.577350 )  
               a(3) = (   0.577350   0.577350  -0.577350 )  

     reciprocal axes: (cart. coord. in units 2 pi/alat)
               b(1) = ( -0.000000  0.866025  0.866025 )  
               b(2) = (  0.866025 -0.000000  0.866025 )  
               b(3) = (  0.866025  0.866025  0.000000 )  


     PseudoPot. # 1 for Ca read from file:
     /work/home/mayuan/code/my_script/scripts_tests/out2/200.0/pp/ca_pbe_v1.uspp.F.UPF
     MD5 check sum: 403a4c14b9e4d4dfdc3024c9a3812218
     Pseudo is Ultrasoft + core correction, Zval = 10.0
     Generated by new atomic code, or converted to UPF format
     Using radial grid of  845 points,  6 beta functions with: 
                l(1) =   0
                l(2) =   0
                l(3) =   1
                l(4) =   1
                l(5) =   2
                l(6) =   2
     Q(r) pseudized with  8 coefficients,  rinner =    1.500   1.500   1.500
                                                       1.500   1.500

     PseudoPot. # 2 for H  read from file:
     /work/home/mayuan/code/my_script/scripts_tests/out2/200.0/pp/h_pbe_v1.uspp.F.UPF
     MD5 check sum: 3408e3ff4ec8b0a4e358431e7e038a48
     Pseudo is Ultrasoft, Zval =  1.0
     Generated by new atomic code, or converted to UPF format
     Using radial grid of  615 points,  2 beta functions with: 
                l(1) =   0
                l(2) =   0
     Q(r) pseudized with  8 coefficients,  rinner =    0.700

     atomic species   valence    mass     pseudopotential
        Ca            10.00    40.07800     Ca( 1.00)
        H              1.00     1.00794     H ( 1.00)

     48 Sym. Ops., with inversion, found



   Cartesian axes

     site n.     atom                  positions (alat units)
         1           Ca  tau(   1) = (   0.0000000   0.0000000   0.0000000  )
         2           H   tau(   2) = (   0.2886751   0.0000000   0.5773503  )
         3           H   tau(   3) = (   0.2886751   0.5773503   0.0000000  )
         4           H   tau(   4) = (   0.5773503   0.2886751   0.0000000  )
         5           H   tau(   5) = (   0.0000000   0.2886751   0.5773503  )
         6           H   tau(   6) = (   0.0000000   0.5773503   0.2886751  )
         7           H   tau(   7) = (   0.5773503   0.0000000   0.2886751  )

     number of k points=  4352  Methfessel-Paxton smearing, width (Ry)=  0.0200

     Number of k-points >= 100: set verbosity='high' to print them.

     Dense  grid:    43227 G-vectors     FFT dimensions: (  48,  48,  48)

     Smooth grid:     8391 G-vectors     FFT dimensions: (  27,  27,  27)

     Estimated max dynamical RAM per process >       8.35 MB

     Estimated total dynamical RAM >     400.63 MB

     The potential is recalculated from file :
     ./tmp/_ph0/Ca1H6.save/charge-density

     Starting wfcs are   16 atomic wfcs

     Band Structure Calculation
     Davidson diagonalization with overlap

     ethr =  6.25E-11,  avg # of iterations = 15.0

     total cpu time spent up to now is       34.9 secs

     End of band structure calculation

     Number of k-points >= 100: set verbosity='high' to print the bands.

     the Fermi energy is    17.0980 ev

     Writing output data file ./tmp/_ph0/Ca1H6.save/

     Electron-phonon coefficients for Ca1H6                                     

     bravais-lattice index     =            0
     lattice parameter (alat)  =       5.5613  a.u.
     unit-cell volume          =     132.4087 (a.u.)^3
     number of atoms/cell      =            7
     number of atomic types    =            2
     kinetic-energy cut-off    =      60.0000  Ry
     charge density cut-off    =     720.0000  Ry
     convergence threshold     =      1.0E-16
     beta                      =       0.7000
     number of iterations used =            4
     Exchange-correlation= PBE
                           (   1   4   3   4   0   0   0)


     celldm(1)=    5.56134  celldm(2)=    0.00000  celldm(3)=    0.00000
     celldm(4)=    0.00000  celldm(5)=    0.00000  celldm(6)=    0.00000

     crystal axes: (cart. coord. in units of alat)
               a(1) = ( -0.5774  0.5774  0.5774 )  
               a(2) = (  0.5774 -0.5774  0.5774 )  
               a(3) = (  0.5774  0.5774 -0.5774 )  

     reciprocal axes: (cart. coord. in units 2 pi/alat)
               b(1) = ( -0.0000  0.8660  0.8660 )  
               b(2) = (  0.8660 -0.0000  0.8660 )  
               b(3) = (  0.8660  0.8660  0.0000 )  


     Atoms inside the unit cell: 

     Cartesian axes

     site n.  atom      mass           positions (alat units)
        1     Ca  40.0780   tau(    1) = (    0.00000    0.00000    0.00000  )
        2     H    1.0079   tau(    2) = (    0.28868    0.00000    0.57735  )
        3     H    1.0079   tau(    3) = (    0.28868    0.57735    0.00000  )
        4     H    1.0079   tau(    4) = (    0.57735    0.28868    0.00000  )
        5     H    1.0079   tau(    5) = (    0.00000    0.28868    0.57735  )
        6     H    1.0079   tau(    6) = (    0.00000    0.57735    0.28868  )
        7     H    1.0079   tau(    7) = (    0.57735    0.00000    0.28868  )

     Computing dynamical matrix for 
                    q = (   0.0000000  -0.2165064   0.4330127 )
 
      2 Sym.Ops. (no q -> -q+G )


     G cutoff =  564.0682  (   3604 G-vectors)     FFT grid: ( 48, 48, 48)
     G cutoff =  188.0227  (    699 G-vectors)  smooth grid: ( 27, 27, 27)

     number of k points=  4352  Methfessel-Paxton smearing, width (Ry)=  0.0200

     PseudoPot. # 1 for Ca read from file:
     /work/home/mayuan/code/my_script/scripts_tests/out2/200.0/pp/ca_pbe_v1.uspp.F.UPF
     MD5 check sum: 403a4c14b9e4d4dfdc3024c9a3812218
     Pseudo is Ultrasoft + core correction, Zval = 10.0
     Generated by new atomic code, or converted to UPF format
     Using radial grid of  845 points,  6 beta functions with: 
                l(1) =   0
                l(2) =   0
                l(3) =   1
                l(4) =   1
                l(5) =   2
                l(6) =   2
     Q(r) pseudized with  8 coefficients,  rinner =    1.500   1.500   1.500
                                                       1.500   1.500

     PseudoPot. # 2 for H  read from file:
     /work/home/mayuan/code/my_script/scripts_tests/out2/200.0/pp/h_pbe_v1.uspp.F.UPF
     MD5 check sum: 3408e3ff4ec8b0a4e358431e7e038a48
     Pseudo is Ultrasoft, Zval =  1.0
     Generated by new atomic code, or converted to UPF format
     Using radial grid of  615 points,  2 beta functions with: 
                l(1) =   0
                l(2) =   0
     Q(r) pseudized with  8 coefficients,  rinner =    0.700

     Mode symmetry, C_s (m)     point group:


     Atomic displacements:
     There are   21 irreducible representations

     Representation     1      1 modes -  To be done

     Representation     2      1 modes -  To be done

     Representation     3      1 modes -  To be done

     Representation     4      1 modes -  To be done

     Representation     5      1 modes -  To be done

     Representation     6      1 modes -  To be done

     Representation     7      1 modes -  To be done

     Representation     8      1 modes -  To be done

     Representation     9      1 modes -  To be done

     Representation    10      1 modes -  To be done

     Representation    11      1 modes -  To be done

     Representation    12      1 modes -  To be done

     Representation    13      1 modes -  To be done

     Representation    14      1 modes -  To be done

     Representation    15      1 modes -  To be done

     Representation    16      1 modes -  To be done

     Representation    17      1 modes -  To be done

     Representation    18      1 modes -  To be done

     Representation    19      1 modes -  To be done

     Representation    20      1 modes -  To be done

     Representation    21      1 modes -  To be done



     Alpha used in Ewald sum =   2.8000
     PHONON       :     53.18s CPU   1m 2.71s WALL



     Representation #   1 mode #   1

     Self-consistent Calculation

      iter #   1 total cpu time :    78.5 secs   av.it.:   3.9
      thresh= 1.000E-02 alpha_mix =  0.700 |ddv_scf|^2 =  7.758E-07

      iter #   2 total cpu time :   121.3 secs   av.it.:   9.5
      thresh= 8.808E-05 alpha_mix =  0.700 |ddv_scf|^2 =  4.706E-06

      iter #   3 total cpu time :   164.6 secs   av.it.:   7.9
      thresh= 2.169E-04 alpha_mix =  0.700 |ddv_scf|^2 =  1.204E-08

      iter #   4 total cpu time :   203.3 secs   av.it.:   9.5
      thresh= 1.097E-05 alpha_mix =  0.700 |ddv_scf|^2 =  6.238E-10

      iter #   5 total cpu time :   245.4 secs   av.it.:   9.6
      thresh= 2.498E-06 alpha_mix =  0.700 |ddv_scf|^2 =  6.036E-11

      iter #   6 total cpu time :   286.1 secs   av.it.:   9.6
      thresh= 7.769E-07 alpha_mix =  0.700 |ddv_scf|^2 =  2.969E-12

      iter #   7 total cpu time :   325.3 secs   av.it.:   9.7
      thresh= 1.723E-07 alpha_mix =  0.700 |ddv_scf|^2 =  1.224E-13

      iter #   8 total cpu time :   368.0 secs   av.it.:   9.9
      thresh= 3.499E-08 alpha_mix =  0.700 |ddv_scf|^2 =  6.233E-14

      iter #   9 total cpu time :   411.2 secs   av.it.:   8.9
      thresh= 2.497E-08 alpha_mix =  0.700 |ddv_scf|^2 =  3.933E-14

      iter #  10 total cpu time :   451.6 secs   av.it.:   8.6
      thresh= 1.983E-08 alpha_mix =  0.700 |ddv_scf|^2 =  2.450E-15

      iter #  11 total cpu time :   495.5 secs   av.it.:   9.0
      thresh= 4.950E-09 alpha_mix =  0.700 |ddv_scf|^2 =  1.620E-15

      iter #  12 total cpu time :   539.4 secs   av.it.:   8.7
      thresh= 4.025E-09 alpha_mix =  0.700 |ddv_scf|^2 =  1.392E-17

     End of self-consistent calculation

     Convergence has been achieved 


     Representation #   2 mode #   2

     Self-consistent Calculation

      iter #   1 total cpu time :   571.4 secs   av.it.:   4.0
      thresh= 1.000E-02 alpha_mix =  0.700 |ddv_scf|^2 =  5.348E-07

      iter #   2 total cpu time :   600.0 secs   av.it.:   9.7
      thresh= 7.313E-05 alpha_mix =  0.700 |ddv_scf|^2 =  1.906E-06

      iter #   3 total cpu time :   630.4 secs   av.it.:   8.2
      thresh= 1.380E-04 alpha_mix =  0.700 |ddv_scf|^2 =  9.207E-08

      iter #   4 total cpu time :   671.4 secs   av.it.:   8.8
      thresh= 3.034E-05 alpha_mix =  0.700 |ddv_scf|^2 =  4.382E-10

      iter #   5 total cpu time :   709.8 secs   av.it.:   9.7
      thresh= 2.093E-06 alpha_mix =  0.700 |ddv_scf|^2 =  6.255E-11

      iter #   6 total cpu time :   745.4 secs   av.it.:   9.5
      thresh= 7.909E-07 alpha_mix =  0.700 |ddv_scf|^2 =  5.488E-12

      iter #   7 total cpu time :   781.5 secs   av.it.:   9.7
      thresh= 2.343E-07 alpha_mix =  0.700 |ddv_scf|^2 =  3.662E-13

      iter #   8 total cpu time :   821.8 secs   av.it.:   9.7
      thresh= 6.051E-08 alpha_mix =  0.700 |ddv_scf|^2 =  6.866E-14

      iter #   9 total cpu time :   862.8 secs   av.it.:   9.1
      thresh= 2.620E-08 alpha_mix =  0.700 |ddv_scf|^2 =  1.579E-13

      iter #  10 total cpu time :   908.5 secs   av.it.:   8.2
      thresh= 3.974E-08 alpha_mix =  0.700 |ddv_scf|^2 =  9.416E-15

      iter #  11 total cpu time :   957.2 secs   av.it.:   8.8
      thresh= 9.703E-09 alpha_mix =  0.700 |ddv_scf|^2 =  2.309E-15

      iter #  12 total cpu time :   999.7 secs   av.it.:   8.8
      thresh= 4.806E-09 alpha_mix =  0.700 |ddv_scf|^2 =  4.050E-17

     End of self-consistent calculation

     Convergence has been achieved 


     Representation #   3 mode #   3

     Self-consistent Calculation

      iter #   1 total cpu time :  1032.3 secs   av.it.:   4.1
      thresh= 1.000E-02 alpha_mix =  0.700 |ddv_scf|^2 =  4.460E-06

      iter #   2 total cpu time :  1061.8 secs   av.it.:   9.3
      thresh= 2.112E-04 alpha_mix =  0.700 |ddv_scf|^2 =  3.026E-05

      iter #   3 total cpu time :  1094.4 secs   av.it.:   7.9
      thresh= 5.501E-04 alpha_mix =  0.700 |ddv_scf|^2 =  2.899E-08

      iter #   4 total cpu time :  1127.7 secs   av.it.:   9.3
      thresh= 1.703E-05 alpha_mix =  0.700 |ddv_scf|^2 =  9.991E-10

      iter #   5 total cpu time :  1163.9 secs   av.it.:   9.5
      thresh= 3.161E-06 alpha_mix =  0.700 |ddv_scf|^2 =  5.228E-11

      iter #   6 total cpu time :  1197.8 secs   av.it.:   9.7
      thresh= 7.230E-07 alpha_mix =  0.700 |ddv_scf|^2 =  1.910E-12

      iter #   7 total cpu time :  1232.3 secs   av.it.:   9.7
      thresh= 1.382E-07 alpha_mix =  0.700 |ddv_scf|^2 =  1.383E-13

      iter #   8 total cpu time :  1272.5 secs   av.it.:   9.7
      thresh= 3.719E-08 alpha_mix =  0.700 |ddv_scf|^2 =  2.207E-13

      iter #   9 total cpu time :  1312.8 secs   av.it.:   8.5
      thresh= 4.698E-08 alpha_mix =  0.700 |ddv_scf|^2 =  3.439E-14

      iter #  10 total cpu time :  1352.1 secs   av.it.:   8.8
      thresh= 1.854E-08 alpha_mix =  0.700 |ddv_scf|^2 =  1.685E-14

      iter #  11 total cpu time :  1397.3 secs   av.it.:   8.4
      thresh= 1.298E-08 alpha_mix =  0.700 |ddv_scf|^2 =  6.205E-17

     End of self-consistent calculation

     Convergence has been achieved 


     Representation #   4 mode #   4

     Self-consistent Calculation

      iter #   1 total cpu time :  1431.1 secs   av.it.:   4.2
      thresh= 1.000E-02 alpha_mix =  0.700 |ddv_scf|^2 =  4.885E-06

      iter #   2 total cpu time :  1463.6 secs   av.it.:   9.4
      thresh= 2.210E-04 alpha_mix =  0.700 |ddv_scf|^2 =  3.205E-05

      iter #   3 total cpu time :  1497.8 secs   av.it.:   8.0
      thresh= 5.661E-04 alpha_mix =  0.700 |ddv_scf|^2 =  6.949E-08

      iter #   4 total cpu time :  1534.0 secs   av.it.:   9.1
      thresh= 2.636E-05 alpha_mix =  0.700 |ddv_scf|^2 =  6.224E-10

      iter #   5 total cpu time :  1570.7 secs   av.it.:   9.6
      thresh= 2.495E-06 alpha_mix =  0.700 |ddv_scf|^2 =  2.036E-11

      iter #   6 total cpu time :  1609.4 secs   av.it.:   9.8
      thresh= 4.513E-07 alpha_mix =  0.700 |ddv_scf|^2 =  1.363E-12

      iter #   7 total cpu time :  1649.5 secs   av.it.:   9.7
      thresh= 1.167E-07 alpha_mix =  0.700 |ddv_scf|^2 =  7.910E-14

      iter #   8 total cpu time :  1692.9 secs   av.it.:   9.8
      thresh= 2.813E-08 alpha_mix =  0.700 |ddv_scf|^2 =  2.080E-13

      iter #   9 total cpu time :  1734.4 secs   av.it.:   8.2
      thresh= 4.561E-08 alpha_mix =  0.700 |ddv_scf|^2 =  1.419E-14

      iter #  10 total cpu time :  1779.1 secs   av.it.:   8.9
      thresh= 1.191E-08 alpha_mix =  0.700 |ddv_scf|^2 =  6.157E-15

      iter #  11 total cpu time :  1817.9 secs   av.it.:   8.5
      thresh= 7.846E-09 alpha_mix =  0.700 |ddv_scf|^2 =  2.834E-16

      iter #  12 total cpu time :  1867.1 secs   av.it.:   9.3
      thresh= 1.683E-09 alpha_mix =  0.700 |ddv_scf|^2 =  8.852E-18

     End of self-consistent calculation

     Convergence has been achieved 


     Representation #   5 mode #   5

     Self-consistent Calculation

      iter #   1 total cpu time :  1904.9 secs   av.it.:   4.3
      thresh= 1.000E-02 alpha_mix =  0.700 |ddv_scf|^2 =  5.890E-06

      iter #   2 total cpu time :  1936.1 secs   av.it.:   9.2
      thresh= 2.427E-04 alpha_mix =  0.700 |ddv_scf|^2 =  3.620E-05

      iter #   3 total cpu time :  1965.9 secs   av.it.:   7.9
      thresh= 6.017E-04 alpha_mix =  0.700 |ddv_scf|^2 =  1.507E-07

      iter #   4 total cpu time :  2003.9 secs   av.it.:   8.9
      thresh= 3.883E-05 alpha_mix =  0.700 |ddv_scf|^2 =  9.037E-10

      iter #   5 total cpu time :  2040.6 secs   av.it.:   9.5
      thresh= 3.006E-06 alpha_mix =  0.700 |ddv_scf|^2 =  2.436E-11

      iter #   6 total cpu time :  2084.5 secs   av.it.:   9.7
      thresh= 4.936E-07 alpha_mix =  0.700 |ddv_scf|^2 =  1.307E-12

      iter #   7 total cpu time :  2123.7 secs   av.it.:   9.8
      thresh= 1.143E-07 alpha_mix =  0.700 |ddv_scf|^2 =  2.591E-13

      iter #   8 total cpu time :  2165.3 secs   av.it.:   9.6
      thresh= 5.090E-08 alpha_mix =  0.700 |ddv_scf|^2 =  5.591E-13

      iter #   9 total cpu time :  2209.7 secs   av.it.:   8.1
      thresh= 7.477E-08 alpha_mix =  0.700 |ddv_scf|^2 =  2.661E-14

      iter #  10 total cpu time :  2248.4 secs   av.it.:   8.9
      thresh= 1.631E-08 alpha_mix =  0.700 |ddv_scf|^2 =  1.595E-14

      iter #  11 total cpu time :  2291.6 secs   av.it.:   8.6
      thresh= 1.263E-08 alpha_mix =  0.700 |ddv_scf|^2 =  3.469E-16

      iter #  12 total cpu time :  2339.6 secs   av.it.:   9.4
      thresh= 1.863E-09 alpha_mix =  0.700 |ddv_scf|^2 =  6.983E-17

     End of self-consistent calculation

     Convergence has been achieved 


     Representation #   6 mode #   6

     Self-consistent Calculation

      iter #   1 total cpu time :  2368.5 secs   av.it.:   4.2
      thresh= 1.000E-02 alpha_mix =  0.700 |ddv_scf|^2 =  2.856E-06

      iter #   2 total cpu time :  2398.0 secs   av.it.:   9.5
      thresh= 1.690E-04 alpha_mix =  0.700 |ddv_scf|^2 =  1.788E-05

      iter #   3 total cpu time :  2433.3 secs   av.it.:   8.0
      thresh= 4.228E-04 alpha_mix =  0.700 |ddv_scf|^2 =  6.858E-08

      iter #   4 total cpu time :  2469.0 secs   av.it.:   9.1
      thresh= 2.619E-05 alpha_mix =  0.700 |ddv_scf|^2 =  7.883E-10

      iter #   5 total cpu time :  2504.2 secs   av.it.:   9.6
      thresh= 2.808E-06 alpha_mix =  0.700 |ddv_scf|^2 =  2.129E-11

      iter #   6 total cpu time :  2540.1 secs   av.it.:   9.8
      thresh= 4.614E-07 alpha_mix =  0.700 |ddv_scf|^2 =  1.237E-12

      iter #   7 total cpu time :  2577.5 secs   av.it.:   9.7
      thresh= 1.112E-07 alpha_mix =  0.700 |ddv_scf|^2 =  8.798E-14

      iter #   8 total cpu time :  2615.4 secs   av.it.:   9.7
      thresh= 2.966E-08 alpha_mix =  0.700 |ddv_scf|^2 =  6.868E-14

      iter #   9 total cpu time :  2653.0 secs   av.it.:   8.8
      thresh= 2.621E-08 alpha_mix =  0.700 |ddv_scf|^2 =  7.391E-14

      iter #  10 total cpu time :  2695.7 secs   av.it.:   8.4
      thresh= 2.719E-08 alpha_mix =  0.700 |ddv_scf|^2 =  5.089E-15

      iter #  11 total cpu time :  2737.1 secs   av.it.:   8.6
      thresh= 7.133E-09 alpha_mix =  0.700 |ddv_scf|^2 =  4.109E-16

      iter #  12 total cpu time :  2781.1 secs   av.it.:   9.2
      thresh= 2.027E-09 alpha_mix =  0.700 |ddv_scf|^2 =  4.009E-17

     End of self-consistent calculation

     Convergence has been achieved 


     Representation #   7 mode #   7

     Self-consistent Calculation

      iter #   1 total cpu time :  2812.8 secs   av.it.:   7.1
      thresh= 1.000E-02 alpha_mix =  0.700 |ddv_scf|^2 =  5.591E-04

      iter #   2 total cpu time :  2840.7 secs   av.it.:   9.3
      thresh= 2.364E-03 alpha_mix =  0.700 |ddv_scf|^2 =  3.865E-03

      iter #   3 total cpu time :  2874.6 secs   av.it.:   7.9
      thresh= 6.217E-03 alpha_mix =  0.700 |ddv_scf|^2 =  4.939E-06

      iter #   4 total cpu time :  2908.8 secs   av.it.:   9.1
      thresh= 2.222E-04 alpha_mix =  0.700 |ddv_scf|^2 =  3.845E-08

      iter #   5 total cpu time :  2946.1 secs   av.it.:   9.6
      thresh= 1.961E-05 alpha_mix =  0.700 |ddv_scf|^2 =  2.405E-09

      iter #   6 total cpu time :  2978.9 secs   av.it.:   9.0
      thresh= 4.904E-06 alpha_mix =  0.700 |ddv_scf|^2 =  8.773E-11

      iter #   7 total cpu time :  3020.8 secs   av.it.:   9.4
      thresh= 9.366E-07 alpha_mix =  0.700 |ddv_scf|^2 =  2.989E-12

      iter #   8 total cpu time :  3058.8 secs   av.it.:   9.8
      thresh= 1.729E-07 alpha_mix =  0.700 |ddv_scf|^2 =  2.573E-13

      iter #   9 total cpu time :  3095.1 secs   av.it.:   9.5
      thresh= 5.072E-08 alpha_mix =  0.700 |ddv_scf|^2 =  2.894E-13

      iter #  10 total cpu time :  3132.3 secs   av.it.:   8.4
      thresh= 5.379E-08 alpha_mix =  0.700 |ddv_scf|^2 =  2.428E-14

      iter #  11 total cpu time :  3174.8 secs   av.it.:   8.9
      thresh= 1.558E-08 alpha_mix =  0.700 |ddv_scf|^2 =  2.098E-15

      iter #  12 total cpu time :  3218.1 secs   av.it.:   9.0
      thresh= 4.581E-09 alpha_mix =  0.700 |ddv_scf|^2 =  5.058E-17

     End of self-consistent calculation

     Convergence has been achieved 


     Representation #   8 mode #   8

     Self-consistent Calculation

      iter #   1 total cpu time :  3248.3 secs   av.it.:   4.2
      thresh= 1.000E-02 alpha_mix =  0.700 |ddv_scf|^2 =  4.741E-06

      iter #   2 total cpu time :  3280.9 secs   av.it.:   9.4
      thresh= 2.177E-04 alpha_mix =  0.700 |ddv_scf|^2 =  3.144E-05

      iter #   3 total cpu time :  3314.3 secs   av.it.:   8.0
      thresh= 5.607E-04 alpha_mix =  0.700 |ddv_scf|^2 =  5.614E-08

      iter #   4 total cpu time :  3349.9 secs   av.it.:   9.1
      thresh= 2.369E-05 alpha_mix =  0.700 |ddv_scf|^2 =  7.389E-10

      iter #   5 total cpu time :  3388.0 secs   av.it.:   9.6
      thresh= 2.718E-06 alpha_mix =  0.700 |ddv_scf|^2 =  3.164E-11

      iter #   6 total cpu time :  3426.3 secs   av.it.:   9.7
      thresh= 5.625E-07 alpha_mix =  0.700 |ddv_scf|^2 =  1.675E-12

      iter #   7 total cpu time :  3472.2 secs   av.it.:   9.7
      thresh= 1.294E-07 alpha_mix =  0.700 |ddv_scf|^2 =  7.561E-14

      iter #   8 total cpu time :  3518.3 secs   av.it.:   9.8
      thresh= 2.750E-08 alpha_mix =  0.700 |ddv_scf|^2 =  2.059E-13

      iter #   9 total cpu time :  3567.1 secs   av.it.:   8.2
      thresh= 4.537E-08 alpha_mix =  0.700 |ddv_scf|^2 =  1.608E-14

      iter #  10 total cpu time :  3612.5 secs   av.it.:   8.9
      thresh= 1.268E-08 alpha_mix =  0.700 |ddv_scf|^2 =  5.915E-15

      iter #  11 total cpu time :  3660.9 secs   av.it.:   8.5
      thresh= 7.691E-09 alpha_mix =  0.700 |ddv_scf|^2 =  2.778E-16

      iter #  12 total cpu time :  3707.9 secs   av.it.:   9.3
      thresh= 1.667E-09 alpha_mix =  0.700 |ddv_scf|^2 =  1.063E-17

     End of self-consistent calculation

     Convergence has been achieved 


     Representation #   9 mode #   9

     Self-consistent Calculation

      iter #   1 total cpu time :  3742.0 secs   av.it.:   4.1
      thresh= 1.000E-02 alpha_mix =  0.700 |ddv_scf|^2 =  1.340E-06

      iter #   2 total cpu time :  3773.9 secs   av.it.:   9.5
      thresh= 1.158E-04 alpha_mix =  0.700 |ddv_scf|^2 =  7.648E-06

      iter #   3 total cpu time :  3806.1 secs   av.it.:   8.0
      thresh= 2.765E-04 alpha_mix =  0.700 |ddv_scf|^2 =  5.753E-08

      iter #   4 total cpu time :  3842.1 secs   av.it.:   9.0
      thresh= 2.398E-05 alpha_mix =  0.700 |ddv_scf|^2 =  1.103E-09

      iter #   5 total cpu time :  3878.3 secs   av.it.:   9.5
      thresh= 3.320E-06 alpha_mix =  0.700 |ddv_scf|^2 =  2.785E-11

      iter #   6 total cpu time :  3915.3 secs   av.it.:   9.8
      thresh= 5.277E-07 alpha_mix =  0.700 |ddv_scf|^2 =  1.205E-12

      iter #   7 total cpu time :  3956.5 secs   av.it.:   9.7
      thresh= 1.098E-07 alpha_mix =  0.700 |ddv_scf|^2 =  1.101E-13

      iter #   8 total cpu time :  3998.4 secs   av.it.:   9.8
      thresh= 3.318E-08 alpha_mix =  0.700 |ddv_scf|^2 =  8.652E-14

      iter #   9 total cpu time :  4039.7 secs   av.it.:   8.7
      thresh= 2.941E-08 alpha_mix =  0.700 |ddv_scf|^2 =  7.575E-14

      iter #  10 total cpu time :  4078.0 secs   av.it.:   8.5
      thresh= 2.752E-08 alpha_mix =  0.700 |ddv_scf|^2 =  5.622E-15

      iter #  11 total cpu time :  4122.0 secs   av.it.:   8.7
      thresh= 7.498E-09 alpha_mix =  0.700 |ddv_scf|^2 =  3.579E-16

      iter #  12 total cpu time :  4166.0 secs   av.it.:   9.3
      thresh= 1.892E-09 alpha_mix =  0.700 |ddv_scf|^2 =  2.772E-17

     End of self-consistent calculation

     Convergence has been achieved 


     Representation #  10 mode #  10

     Self-consistent Calculation

      iter #   1 total cpu time :  4198.8 secs   av.it.:   4.2
      thresh= 1.000E-02 alpha_mix =  0.700 |ddv_scf|^2 =  4.512E-06

      iter #   2 total cpu time :  4234.2 secs   av.it.:   9.3
      thresh= 2.124E-04 alpha_mix =  0.700 |ddv_scf|^2 =  3.022E-05

      iter #   3 total cpu time :  4273.7 secs   av.it.:   7.9
      thresh= 5.497E-04 alpha_mix =  0.700 |ddv_scf|^2 =  2.587E-08

      iter #   4 total cpu time :  4312.1 secs   av.it.:   9.2
      thresh= 1.608E-05 alpha_mix =  0.700 |ddv_scf|^2 =  1.398E-09

      iter #   5 total cpu time :  4350.1 secs   av.it.:   9.3
      thresh= 3.739E-06 alpha_mix =  0.700 |ddv_scf|^2 =  3.296E-11

      iter #   6 total cpu time :  4394.4 secs   av.it.:   9.7
      thresh= 5.741E-07 alpha_mix =  0.700 |ddv_scf|^2 =  2.131E-12

      iter #   7 total cpu time :  4441.1 secs   av.it.:   9.7
      thresh= 1.460E-07 alpha_mix =  0.700 |ddv_scf|^2 =  1.569E-13

      iter #   8 total cpu time :  4480.1 secs   av.it.:   9.8
      thresh= 3.962E-08 alpha_mix =  0.700 |ddv_scf|^2 =  4.119E-13

      iter #   9 total cpu time :  4528.1 secs   av.it.:   8.2
      thresh= 6.418E-08 alpha_mix =  0.700 |ddv_scf|^2 =  1.474E-14

      iter #  10 total cpu time :  4571.7 secs   av.it.:   9.4
      thresh= 1.214E-08 alpha_mix =  0.700 |ddv_scf|^2 =  7.531E-15

      iter #  11 total cpu time :  4615.7 secs   av.it.:   8.6
      thresh= 8.678E-09 alpha_mix =  0.700 |ddv_scf|^2 =  2.991E-16

      iter #  12 total cpu time :  4663.1 secs   av.it.:   9.1
      thresh= 1.730E-09 alpha_mix =  0.700 |ddv_scf|^2 =  2.317E-17

     End of self-consistent calculation

     Convergence has been achieved 


     Representation #  11 mode #  11

     Self-consistent Calculation

      iter #   1 total cpu time :  4696.8 secs   av.it.:   6.6
      thresh= 1.000E-02 alpha_mix =  0.700 |ddv_scf|^2 =  2.888E-05

      iter #   2 total cpu time :  4729.5 secs   av.it.:   9.8
      thresh= 5.374E-04 alpha_mix =  0.700 |ddv_scf|^2 =  1.091E-04

      iter #   3 total cpu time :  4766.3 secs   av.it.:   8.2
      thresh= 1.045E-03 alpha_mix =  0.700 |ddv_scf|^2 =  4.717E-06

      iter #   4 total cpu time :  4799.9 secs   av.it.:   8.9
      thresh= 2.172E-04 alpha_mix =  0.700 |ddv_scf|^2 =  7.386E-08

      iter #   5 total cpu time :  4836.0 secs   av.it.:   9.3
      thresh= 2.718E-05 alpha_mix =  0.700 |ddv_scf|^2 =  1.473E-09

      iter #   6 total cpu time :  4873.7 secs   av.it.:   9.6
      thresh= 3.839E-06 alpha_mix =  0.700 |ddv_scf|^2 =  8.201E-11

      iter #   7 total cpu time :  4915.0 secs   av.it.:   9.7
      thresh= 9.056E-07 alpha_mix =  0.700 |ddv_scf|^2 =  8.298E-12

      iter #   8 total cpu time :  4958.9 secs   av.it.:   9.9
      thresh= 2.881E-07 alpha_mix =  0.700 |ddv_scf|^2 =  5.932E-12

      iter #   9 total cpu time :  5002.5 secs   av.it.:   8.5
      thresh= 2.436E-07 alpha_mix =  0.700 |ddv_scf|^2 =  1.353E-12

      iter #  10 total cpu time :  5044.9 secs   av.it.:   8.8
      thresh= 1.163E-07 alpha_mix =  0.700 |ddv_scf|^2 =  1.578E-12

      iter #  11 total cpu time :  5089.0 secs   av.it.:   8.5
      thresh= 1.256E-07 alpha_mix =  0.700 |ddv_scf|^2 =  4.949E-15

      iter #  12 total cpu time :  5136.5 secs   av.it.:   9.7
      thresh= 7.035E-09 alpha_mix =  0.700 |ddv_scf|^2 =  2.507E-15

      iter #  13 total cpu time :  5187.8 secs   av.it.:   9.3
      thresh= 5.007E-09 alpha_mix =  0.700 |ddv_scf|^2 =  7.307E-17

     End of self-consistent calculation

     Convergence has been achieved 


     Representation #  12 mode #  12

     Self-consistent Calculation

      iter #   1 total cpu time :  5215.9 secs   av.it.:   4.0
      thresh= 1.000E-02 alpha_mix =  0.700 |ddv_scf|^2 =  2.942E-06

      iter #   2 total cpu time :  5240.8 secs   av.it.:   9.3
      thresh= 1.715E-04 alpha_mix =  0.700 |ddv_scf|^2 =  2.001E-05

      iter #   3 total cpu time :  5267.4 secs   av.it.:   7.9
      thresh= 4.473E-04 alpha_mix =  0.700 |ddv_scf|^2 =  1.112E-08

      iter #   4 total cpu time :  5300.8 secs   av.it.:   9.6
      thresh= 1.055E-05 alpha_mix =  0.700 |ddv_scf|^2 =  9.851E-10

      iter #   5 total cpu time :  5330.1 secs   av.it.:   9.3
      thresh= 3.139E-06 alpha_mix =  0.700 |ddv_scf|^2 =  6.202E-11

      iter #   6 total cpu time :  5363.3 secs   av.it.:   9.7
      thresh= 7.875E-07 alpha_mix =  0.700 |ddv_scf|^2 =  2.449E-12

      iter #   7 total cpu time :  5396.0 secs   av.it.:   9.7
      thresh= 1.565E-07 alpha_mix =  0.700 |ddv_scf|^2 =  1.517E-13

      iter #   8 total cpu time :  5436.0 secs   av.it.:   9.8
      thresh= 3.894E-08 alpha_mix =  0.700 |ddv_scf|^2 =  1.035E-13

      iter #   9 total cpu time :  5470.1 secs   av.it.:   8.7
      thresh= 3.217E-08 alpha_mix =  0.700 |ddv_scf|^2 =  4.721E-14

      iter #  10 total cpu time :  5506.6 secs   av.it.:   8.7
      thresh= 2.173E-08 alpha_mix =  0.700 |ddv_scf|^2 =  1.766E-14

      iter #  11 total cpu time :  5545.8 secs   av.it.:   8.3
      thresh= 1.329E-08 alpha_mix =  0.700 |ddv_scf|^2 =  9.831E-17

     End of self-consistent calculation

     Convergence has been achieved 


     Representation #  13 mode #  13

     Self-consistent Calculation

      iter #   1 total cpu time :  5578.4 secs   av.it.:   3.9
      thresh= 1.000E-02 alpha_mix =  0.700 |ddv_scf|^2 =  9.204E-07

      iter #   2 total cpu time :  5609.8 secs   av.it.:   9.4
      thresh= 9.594E-05 alpha_mix =  0.700 |ddv_scf|^2 =  5.318E-06

      iter #   3 total cpu time :  5642.5 secs   av.it.:   8.0
      thresh= 2.306E-04 alpha_mix =  0.700 |ddv_scf|^2 =  2.897E-08

      iter #   4 total cpu time :  5680.9 secs   av.it.:   9.1
      thresh= 1.702E-05 alpha_mix =  0.700 |ddv_scf|^2 =  1.219E-09

      iter #   5 total cpu time :  5720.0 secs   av.it.:   9.4
      thresh= 3.491E-06 alpha_mix =  0.700 |ddv_scf|^2 =  4.331E-11

      iter #   6 total cpu time :  5757.8 secs   av.it.:   9.7
      thresh= 6.581E-07 alpha_mix =  0.700 |ddv_scf|^2 =  1.927E-12

      iter #   7 total cpu time :  5796.3 secs   av.it.:   9.7
      thresh= 1.388E-07 alpha_mix =  0.700 |ddv_scf|^2 =  1.337E-13

      iter #   8 total cpu time :  5840.3 secs   av.it.:   9.9
      thresh= 3.657E-08 alpha_mix =  0.700 |ddv_scf|^2 =  1.212E-13

      iter #   9 total cpu time :  5880.8 secs   av.it.:   8.7
      thresh= 3.482E-08 alpha_mix =  0.700 |ddv_scf|^2 =  3.492E-14

      iter #  10 total cpu time :  5925.6 secs   av.it.:   8.8
      thresh= 1.869E-08 alpha_mix =  0.700 |ddv_scf|^2 =  1.036E-15

      iter #  11 total cpu time :  5966.0 secs   av.it.:   9.5
      thresh= 3.218E-09 alpha_mix =  0.700 |ddv_scf|^2 =  3.652E-16

      iter #  12 total cpu time :  6009.3 secs   av.it.:   9.1
      thresh= 1.911E-09 alpha_mix =  0.700 |ddv_scf|^2 =  1.169E-16

      iter #  13 total cpu time :  6051.6 secs   av.it.:   8.8
      thresh= 1.081E-09 alpha_mix =  0.700 |ddv_scf|^2 =  9.387E-18

     End of self-consistent calculation

     Convergence has been achieved 


     Representation #  14 mode #  14

     Self-consistent Calculation

      iter #   1 total cpu time :  6083.5 secs   av.it.:   3.7
      thresh= 1.000E-02 alpha_mix =  0.700 |ddv_scf|^2 =  4.925E-08

      iter #   2 total cpu time :  6118.3 secs   av.it.:   9.5
      thresh= 2.219E-05 alpha_mix =  0.700 |ddv_scf|^2 =  4.042E-09

      iter #   3 total cpu time :  6155.6 secs   av.it.:   9.5
      thresh= 6.357E-06 alpha_mix =  0.700 |ddv_scf|^2 =  2.691E-10

      iter #   4 total cpu time :  6190.3 secs   av.it.:   9.4
      thresh= 1.640E-06 alpha_mix =  0.700 |ddv_scf|^2 =  5.822E-12

      iter #   5 total cpu time :  6226.3 secs   av.it.:   9.1
      thresh= 2.413E-07 alpha_mix =  0.700 |ddv_scf|^2 =  1.128E-13

      iter #   6 total cpu time :  6266.0 secs   av.it.:   9.6
      thresh= 3.358E-08 alpha_mix =  0.700 |ddv_scf|^2 =  2.324E-15

      iter #   7 total cpu time :  6309.4 secs   av.it.:   9.4
      thresh= 4.821E-09 alpha_mix =  0.700 |ddv_scf|^2 =  8.321E-17

     End of self-consistent calculation

     Convergence has been achieved 


     Representation #  15 mode #  15

     Self-consistent Calculation

      iter #   1 total cpu time :  6342.6 secs   av.it.:   6.5
      thresh= 1.000E-02 alpha_mix =  0.700 |ddv_scf|^2 =  1.512E-05

      iter #   2 total cpu time :  6370.2 secs   av.it.:   9.6
      thresh= 3.889E-04 alpha_mix =  0.700 |ddv_scf|^2 =  2.801E-06

      iter #   3 total cpu time :  6403.2 secs   av.it.:   9.3
      thresh= 1.674E-04 alpha_mix =  0.700 |ddv_scf|^2 =  4.115E-09

      iter #   4 total cpu time :  6437.5 secs   av.it.:   9.4
      thresh= 6.415E-06 alpha_mix =  0.700 |ddv_scf|^2 =  2.216E-10

      iter #   5 total cpu time :  6469.7 secs   av.it.:   9.3
      thresh= 1.489E-06 alpha_mix =  0.700 |ddv_scf|^2 =  2.227E-12

      iter #   6 total cpu time :  6504.8 secs   av.it.:   9.4
      thresh= 1.492E-07 alpha_mix =  0.700 |ddv_scf|^2 =  2.542E-14

      iter #   7 total cpu time :  6539.8 secs   av.it.:   9.0
      thresh= 1.594E-08 alpha_mix =  0.700 |ddv_scf|^2 =  1.110E-15

      iter #   8 total cpu time :  6580.7 secs   av.it.:   9.1
      thresh= 3.332E-09 alpha_mix =  0.700 |ddv_scf|^2 =  7.788E-18

     End of self-consistent calculation

     Convergence has been achieved 


     Representation #  16 mode #  16

     Self-consistent Calculation

      iter #   1 total cpu time :  6613.3 secs   av.it.:   4.0
      thresh= 1.000E-02 alpha_mix =  0.700 |ddv_scf|^2 =  1.271E-07

      iter #   2 total cpu time :  6645.7 secs   av.it.:   9.6
      thresh= 3.565E-05 alpha_mix =  0.700 |ddv_scf|^2 =  1.423E-08

      iter #   3 total cpu time :  6681.3 secs   av.it.:   9.5
      thresh= 1.193E-05 alpha_mix =  0.700 |ddv_scf|^2 =  3.151E-10

      iter #   4 total cpu time :  6717.1 secs   av.it.:   9.5
      thresh= 1.775E-06 alpha_mix =  0.700 |ddv_scf|^2 =  1.064E-11

      iter #   5 total cpu time :  6753.1 secs   av.it.:   9.5
      thresh= 3.262E-07 alpha_mix =  0.700 |ddv_scf|^2 =  2.482E-13

      iter #   6 total cpu time :  6796.9 secs   av.it.:   9.3
      thresh= 4.982E-08 alpha_mix =  0.700 |ddv_scf|^2 =  2.317E-15

      iter #   7 total cpu time :  6838.1 secs   av.it.:   9.5
      thresh= 4.814E-09 alpha_mix =  0.700 |ddv_scf|^2 =  7.713E-17

     End of self-consistent calculation

     Convergence has been achieved 


     Representation #  17 mode #  17

     Self-consistent Calculation

      iter #   1 total cpu time :  6864.6 secs   av.it.:   3.6
      thresh= 1.000E-02 alpha_mix =  0.700 |ddv_scf|^2 =  2.832E-08

      iter #   2 total cpu time :  6896.3 secs   av.it.:   9.6
      thresh= 1.683E-05 alpha_mix =  0.700 |ddv_scf|^2 =  1.757E-09

      iter #   3 total cpu time :  6931.9 secs   av.it.:   9.6
      thresh= 4.192E-06 alpha_mix =  0.700 |ddv_scf|^2 =  2.152E-10

      iter #   4 total cpu time :  6966.0 secs   av.it.:   9.5
      thresh= 1.467E-06 alpha_mix =  0.700 |ddv_scf|^2 =  4.538E-12

      iter #   5 total cpu time :  7003.5 secs   av.it.:   9.4
      thresh= 2.130E-07 alpha_mix =  0.700 |ddv_scf|^2 =  8.725E-14

      iter #   6 total cpu time :  7038.3 secs   av.it.:   9.5
      thresh= 2.954E-08 alpha_mix =  0.700 |ddv_scf|^2 =  2.194E-15

      iter #   7 total cpu time :  7076.7 secs   av.it.:   9.5
      thresh= 4.684E-09 alpha_mix =  0.700 |ddv_scf|^2 =  6.915E-17

     End of self-consistent calculation

     Convergence has been achieved 


     Representation #  18 mode #  18

     Self-consistent Calculation

      iter #   1 total cpu time :  7109.4 secs   av.it.:   4.0
      thresh= 1.000E-02 alpha_mix =  0.700 |ddv_scf|^2 =  1.271E-07

      iter #   2 total cpu time :  7139.7 secs   av.it.:   9.6
      thresh= 3.565E-05 alpha_mix =  0.700 |ddv_scf|^2 =  1.423E-08

      iter #   3 total cpu time :  7173.9 secs   av.it.:   9.5
      thresh= 1.193E-05 alpha_mix =  0.700 |ddv_scf|^2 =  3.151E-10

      iter #   4 total cpu time :  7212.1 secs   av.it.:   9.5
      thresh= 1.775E-06 alpha_mix =  0.700 |ddv_scf|^2 =  1.064E-11

      iter #   5 total cpu time :  7254.1 secs   av.it.:   9.5
      thresh= 3.262E-07 alpha_mix =  0.700 |ddv_scf|^2 =  2.482E-13

      iter #   6 total cpu time :  7294.2 secs   av.it.:   9.3
      thresh= 4.982E-08 alpha_mix =  0.700 |ddv_scf|^2 =  2.317E-15

      iter #   7 total cpu time :  7336.8 secs   av.it.:   9.5
      thresh= 4.814E-09 alpha_mix =  0.700 |ddv_scf|^2 =  7.713E-17

     End of self-consistent calculation

     Convergence has been achieved 


     Representation #  19 mode #  19

     Self-consistent Calculation

      iter #   1 total cpu time :  7367.4 secs   av.it.:   4.0
      thresh= 1.000E-02 alpha_mix =  0.700 |ddv_scf|^2 =  1.271E-07

      iter #   2 total cpu time :  7396.3 secs   av.it.:   9.6
      thresh= 3.565E-05 alpha_mix =  0.700 |ddv_scf|^2 =  1.368E-08

      iter #   3 total cpu time :  7431.1 secs   av.it.:   9.6
      thresh= 1.170E-05 alpha_mix =  0.700 |ddv_scf|^2 =  3.166E-10

      iter #   4 total cpu time :  7467.4 secs   av.it.:   9.6
      thresh= 1.779E-06 alpha_mix =  0.700 |ddv_scf|^2 =  1.234E-11

      iter #   5 total cpu time :  7502.7 secs   av.it.:   9.5
      thresh= 3.513E-07 alpha_mix =  0.700 |ddv_scf|^2 =  2.522E-13

      iter #   6 total cpu time :  7545.2 secs   av.it.:   9.3
      thresh= 5.022E-08 alpha_mix =  0.700 |ddv_scf|^2 =  2.212E-15

      iter #   7 total cpu time :  7586.6 secs   av.it.:   9.4
      thresh= 4.703E-09 alpha_mix =  0.700 |ddv_scf|^2 =  8.924E-17

     End of self-consistent calculation

     Convergence has been achieved 


     Representation #  20 mode #  20

     Self-consistent Calculation

      iter #   1 total cpu time :  7618.6 secs   av.it.:   4.0
      thresh= 1.000E-02 alpha_mix =  0.700 |ddv_scf|^2 =  1.271E-07

      iter #   2 total cpu time :  7651.3 secs   av.it.:   9.6
      thresh= 3.565E-05 alpha_mix =  0.700 |ddv_scf|^2 =  1.368E-08

      iter #   3 total cpu time :  7694.6 secs   av.it.:   9.6
      thresh= 1.170E-05 alpha_mix =  0.700 |ddv_scf|^2 =  3.166E-10

      iter #   4 total cpu time :  7733.4 secs   av.it.:   9.6
      thresh= 1.779E-06 alpha_mix =  0.700 |ddv_scf|^2 =  1.234E-11

      iter #   5 total cpu time :  7774.8 secs   av.it.:   9.5
      thresh= 3.513E-07 alpha_mix =  0.700 |ddv_scf|^2 =  2.522E-13

      iter #   6 total cpu time :  7815.4 secs   av.it.:   9.3
      thresh= 5.022E-08 alpha_mix =  0.700 |ddv_scf|^2 =  2.212E-15

      iter #   7 total cpu time :  7862.7 secs   av.it.:   9.4
      thresh= 4.703E-09 alpha_mix =  0.700 |ddv_scf|^2 =  8.924E-17

     End of self-consistent calculation

     Convergence has been achieved 


     Representation #  21 mode #  21

     Self-consistent Calculation

      iter #   1 total cpu time :  7894.1 secs   av.it.:   3.7
      thresh= 1.000E-02 alpha_mix =  0.700 |ddv_scf|^2 =  5.526E-08

      iter #   2 total cpu time :  7929.8 secs   av.it.:   9.5
      thresh= 2.351E-05 alpha_mix =  0.700 |ddv_scf|^2 =  5.618E-09

      iter #   3 total cpu time :  7964.9 secs   av.it.:   9.5
      thresh= 7.495E-06 alpha_mix =  0.700 |ddv_scf|^2 =  2.711E-10

      iter #   4 total cpu time :  8000.8 secs   av.it.:   9.5
      thresh= 1.646E-06 alpha_mix =  0.700 |ddv_scf|^2 =  4.382E-12

      iter #   5 total cpu time :  8036.8 secs   av.it.:   9.2
      thresh= 2.093E-07 alpha_mix =  0.700 |ddv_scf|^2 =  5.448E-14

      iter #   6 total cpu time :  8078.7 secs   av.it.:   9.7
      thresh= 2.334E-08 alpha_mix =  0.700 |ddv_scf|^2 =  2.506E-15

      iter #   7 total cpu time :  8118.5 secs   av.it.:   9.5
      thresh= 5.006E-09 alpha_mix =  0.700 |ddv_scf|^2 =  9.063E-17

     End of self-consistent calculation

     Convergence has been achieved 
 
     Number of q in the star =   24
     List of q in the star:
          1   0.000000000  -0.216506400   0.433012700
          2  -0.000000000  -0.216506400  -0.433012700
          3   0.000000000   0.216506400  -0.433012700
          4  -0.216506400   0.000000000  -0.433012700
          5   0.216506400  -0.000000000  -0.433012700
          6  -0.216506400  -0.000000000   0.433012700
          7   0.216506400   0.000000000   0.433012700
          8   0.433012700   0.216506400   0.000000000
          9  -0.433012700   0.216506400  -0.000000000
         10   0.433012700  -0.216506400  -0.000000000
         11  -0.433012700  -0.216506400   0.000000000
         12  -0.000000000   0.433012700  -0.216506400
         13  -0.000000000  -0.433012700   0.216506400
         14   0.000000000   0.433012700   0.216506400
         15   0.000000000  -0.433012700  -0.216506400
         16  -0.216506400   0.433012700   0.000000000
         17   0.216506400   0.433012700  -0.000000000
         18  -0.216506400  -0.433012700  -0.000000000
         19   0.216506400  -0.433012700   0.000000000
         20   0.433012700   0.000000000  -0.216506400
         21   0.433012700  -0.000000000   0.216506400
         22  -0.433012700  -0.000000000  -0.216506400
         23  -0.433012700   0.000000000   0.216506400
         24   0.000000000   0.216506400   0.433012700

     Diagonalizing the dynamical matrix

     q = (    0.000000000  -0.216506400   0.433012700 ) 

 **************************************************************************
     freq (    1) =       7.881397 [THz] =     262.895114 [cm-1]
     freq (    2) =       9.616411 [THz] =     320.768932 [cm-1]
     freq (    3) =      13.539576 [THz] =     451.631626 [cm-1]
     freq (    4) =      29.189065 [THz] =     973.642395 [cm-1]
     freq (    5) =      30.029539 [THz] =    1001.677598 [cm-1]
     freq (    6) =      30.942614 [THz] =    1032.134511 [cm-1]
     freq (    7) =      35.314367 [THz] =    1177.960487 [cm-1]
     freq (    8) =      37.629199 [THz] =    1255.174959 [cm-1]
     freq (    9) =      38.913054 [THz] =    1297.999751 [cm-1]
     freq (   10) =      39.295561 [THz] =    1310.758829 [cm-1]
     freq (   11) =      40.836009 [THz] =    1362.142627 [cm-1]
     freq (   12) =      41.496747 [THz] =    1384.182499 [cm-1]
     freq (   13) =      42.384613 [THz] =    1413.798495 [cm-1]
     freq (   14) =      42.573980 [THz] =    1420.115103 [cm-1]
     freq (   15) =      44.371620 [THz] =    1480.077934 [cm-1]
     freq (   16) =      44.564804 [THz] =    1486.521839 [cm-1]
     freq (   17) =      45.568589 [THz] =    1520.004514 [cm-1]
     freq (   18) =      48.252049 [THz] =    1609.515091 [cm-1]
     freq (   19) =      49.162363 [THz] =    1639.879919 [cm-1]
     freq (   20) =      55.529947 [THz] =    1852.279662 [cm-1]
     freq (   21) =      59.665187 [THz] =    1990.216415 [cm-1]
 **************************************************************************

     Mode symmetry, C_s (m)     point group:

     freq (   1-   1) =        262.9  [cm-1]   --> A''                
     freq (   2-   2) =        320.8  [cm-1]   --> A'                 
     freq (   3-   3) =        451.6  [cm-1]   --> A'                 
     freq (   4-   4) =        973.6  [cm-1]   --> A''                
     freq (   5-   5) =       1001.7  [cm-1]   --> A''                
     freq (   6-   6) =       1032.1  [cm-1]   --> A'                 
     freq (   7-   7) =       1178.0  [cm-1]   --> A'                 
     freq (   8-   8) =       1255.2  [cm-1]   --> A'                 
     freq (   9-   9) =       1298.0  [cm-1]   --> A''                
     freq (  10-  10) =       1310.8  [cm-1]   --> A'                 
     freq (  11-  11) =       1362.1  [cm-1]   --> A''                
     freq (  12-  12) =       1384.2  [cm-1]   --> A'                 
     freq (  13-  13) =       1413.8  [cm-1]   --> A''                
     freq (  14-  14) =       1420.1  [cm-1]   --> A'                 
     freq (  15-  15) =       1480.1  [cm-1]   --> A''                
     freq (  16-  16) =       1486.5  [cm-1]   --> A'                 
     freq (  17-  17) =       1520.0  [cm-1]   --> A'                 
     freq (  18-  18) =       1609.5  [cm-1]   --> A'                 
     freq (  19-  19) =       1639.9  [cm-1]   --> A''                
     freq (  20-  20) =       1852.3  [cm-1]   --> A'                 
     freq (  21-  21) =       1990.2  [cm-1]   --> A'                 
     electron-phonon interaction  ...

     Gaussian Broadening:   0.005 Ry, ngauss=   0
     DOS =  1.900675 states/spin/Ry/Unit Cell at Ef= 17.155196 eV
     lambda(    1)=  0.0480   gamma=    5.42 GHz
     lambda(    2)=  0.0637   gamma=   10.69 GHz
     lambda(    3)=  0.0171   gamma=    5.70 GHz
     lambda(    4)=  0.3904   gamma=  603.65 GHz
     lambda(    5)=  0.0179   gamma=   29.29 GHz
     lambda(    6)=  0.0265   gamma=   46.00 GHz
     lambda(    7)=  0.1606   gamma=  363.59 GHz
     lambda(    8)=  0.0199   gamma=   51.15 GHz
     lambda(    9)=  0.0305   gamma=   83.79 GHz
     lambda(   10)=  0.0262   gamma=   73.30 GHz
     lambda(   11)=  0.0045   gamma=   13.60 GHz
     lambda(   12)=  0.0242   gamma=   75.50 GHz
     lambda(   13)=  0.0017   gamma=    5.51 GHz
     lambda(   14)=  0.0121   gamma=   39.78 GHz
     lambda(   15)=  0.0006   gamma=    2.02 GHz
     lambda(   16)=  0.0009   gamma=    3.35 GHz
     lambda(   17)=  0.0082   gamma=   30.74 GHz
     lambda(   18)=  0.0069   gamma=   29.23 GHz
     lambda(   19)=  0.0050   gamma=   21.72 GHz
     lambda(   20)=  0.0023   gamma=   13.11 GHz
     lambda(   21)=  0.0014   gamma=    8.97 GHz
     Gaussian Broadening:   0.010 Ry, ngauss=   0
     DOS =  2.130656 states/spin/Ry/Unit Cell at Ef= 17.149400 eV
     lambda(    1)=  0.0832   gamma=   10.51 GHz
     lambda(    2)=  0.0886   gamma=   16.67 GHz
     lambda(    3)=  0.0305   gamma=   11.38 GHz
     lambda(    4)=  0.3600   gamma=  624.07 GHz
     lambda(    5)=  0.0631   gamma=  115.74 GHz
     lambda(    6)=  0.1178   gamma=  229.39 GHz
     lambda(    7)=  0.1902   gamma=  482.51 GHz
     lambda(    8)=  0.0852   gamma=  245.36 GHz
     lambda(    9)=  0.0493   gamma=  151.95 GHz
     lambda(   10)=  0.0636   gamma=  199.89 GHz
     lambda(   11)=  0.0158   gamma=   53.61 GHz
     lambda(   12)=  0.0548   gamma=  191.86 GHz
     lambda(   13)=  0.0065   gamma=   23.92 GHz
     lambda(   14)=  0.0217   gamma=   79.90 GHz
     lambda(   15)=  0.0025   gamma=    9.89 GHz
     lambda(   16)=  0.0043   gamma=   17.18 GHz
     lambda(   17)=  0.0096   gamma=   40.70 GHz
     lambda(   18)=  0.0097   gamma=   46.04 GHz
     lambda(   19)=  0.0058   gamma=   28.40 GHz
     lambda(   20)=  0.0050   gamma=   31.34 GHz
     lambda(   21)=  0.0046   gamma=   33.25 GHz
     Gaussian Broadening:   0.015 Ry, ngauss=   0
     DOS =  2.235086 states/spin/Ry/Unit Cell at Ef= 17.146382 eV
     lambda(    1)=  0.1024   gamma=   13.58 GHz
     lambda(    2)=  0.0966   gamma=   19.06 GHz
     lambda(    3)=  0.0348   gamma=   13.63 GHz
     lambda(    4)=  0.3729   gamma=  678.18 GHz
     lambda(    5)=  0.0893   gamma=  171.93 GHz
     lambda(    6)=  0.1474   gamma=  301.14 GHz
     lambda(    7)=  0.2024   gamma=  538.87 GHz
     lambda(    8)=  0.1018   gamma=  307.52 GHz
     lambda(    9)=  0.0588   gamma=  189.99 GHz
     lambda(   10)=  0.0759   gamma=  250.02 GHz
     lambda(   11)=  0.0211   gamma=   74.96 GHz
     lambda(   12)=  0.0687   gamma=  252.64 GHz
     lambda(   13)=  0.0095   gamma=   36.43 GHz
     lambda(   14)=  0.0258   gamma=   99.69 GHz
     lambda(   15)=  0.0034   gamma=   14.42 GHz
     lambda(   16)=  0.0063   gamma=   26.78 GHz
     lambda(   17)=  0.0112   gamma=   49.78 GHz
     lambda(   18)=  0.0110   gamma=   54.81 GHz
     lambda(   19)=  0.0063   gamma=   32.33 GHz
     lambda(   20)=  0.0064   gamma=   42.24 GHz
     lambda(   21)=  0.0064   gamma=   48.96 GHz
     Gaussian Broadening:   0.020 Ry, ngauss=   0
     DOS =  2.290454 states/spin/Ry/Unit Cell at Ef= 17.145317 eV
     lambda(    1)=  0.1091   gamma=   14.82 GHz
     lambda(    2)=  0.0978   gamma=   19.79 GHz
     lambda(    3)=  0.0363   gamma=   14.56 GHz
     lambda(    4)=  0.3858   gamma=  718.90 GHz
     lambda(    5)=  0.0986   gamma=  194.56 GHz
     lambda(    6)=  0.1662   gamma=  348.07 GHz
     lambda(    7)=  0.2066   gamma=  563.53 GHz
     lambda(    8)=  0.1117   gamma=  346.07 GHz
     lambda(    9)=  0.0624   gamma=  206.73 GHz
     lambda(   10)=  0.0797   gamma=  269.16 GHz
     lambda(   11)=  0.0227   gamma=   82.83 GHz
     lambda(   12)=  0.0750   gamma=  282.66 GHz
     lambda(   13)=  0.0102   gamma=   39.90 GHz
     lambda(   14)=  0.0275   gamma=  109.09 GHz
     lambda(   15)=  0.0042   gamma=   18.15 GHz
     lambda(   16)=  0.0083   gamma=   35.84 GHz
     lambda(   17)=  0.0128   gamma=   58.31 GHz
     lambda(   18)=  0.0120   gamma=   61.04 GHz
     lambda(   19)=  0.0065   gamma=   34.12 GHz
     lambda(   20)=  0.0082   gamma=   55.24 GHz
     lambda(   21)=  0.0083   gamma=   64.82 GHz
     Gaussian Broadening:   0.025 Ry, ngauss=   0
     DOS =  2.332190 states/spin/Ry/Unit Cell at Ef= 17.144758 eV
     lambda(    1)=  0.1116   gamma=   15.44 GHz
     lambda(    2)=  0.0982   gamma=   20.22 GHz
     lambda(    3)=  0.0370   gamma=   15.11 GHz
     lambda(    4)=  0.3964   gamma=  752.10 GHz
     lambda(    5)=  0.1029   gamma=  206.69 GHz
     lambda(    6)=  0.1789   gamma=  381.41 GHz
     lambda(    7)=  0.2082   gamma=  578.21 GHz
     lambda(    8)=  0.1188   gamma=  374.54 GHz
     lambda(    9)=  0.0639   gamma=  215.59 GHz
     lambda(   10)=  0.0814   gamma=  279.91 GHz
     lambda(   11)=  0.0232   gamma=   86.16 GHz
     lambda(   12)=  0.0780   gamma=  299.18 GHz
     lambda(   13)=  0.0103   gamma=   41.08 GHz
     lambda(   14)=  0.0284   gamma=  114.66 GHz
     lambda(   15)=  0.0047   gamma=   20.82 GHz
     lambda(   16)=  0.0096   gamma=   42.64 GHz
     lambda(   17)=  0.0140   gamma=   64.87 GHz
     lambda(   18)=  0.0127   gamma=   65.60 GHz
     lambda(   19)=  0.0066   gamma=   35.70 GHz
     lambda(   20)=  0.0096   gamma=   65.77 GHz
     lambda(   21)=  0.0099   gamma=   78.28 GHz
     Gaussian Broadening:   0.030 Ry, ngauss=   0
     DOS =  2.360595 states/spin/Ry/Unit Cell at Ef= 17.144134 eV
     lambda(    1)=  0.1128   gamma=   15.80 GHz
     lambda(    2)=  0.0987   gamma=   20.57 GHz
     lambda(    3)=  0.0374   gamma=   15.46 GHz
     lambda(    4)=  0.4021   gamma=  772.26 GHz
     lambda(    5)=  0.1058   gamma=  215.14 GHz
     lambda(    6)=  0.1867   gamma=  403.01 GHz
     lambda(    7)=  0.2089   gamma=  587.24 GHz
     lambda(    8)=  0.1225   gamma=  391.13 GHz
     lambda(    9)=  0.0646   gamma=  220.54 GHz
     lambda(   10)=  0.0825   gamma=  287.02 GHz
     lambda(   11)=  0.0235   gamma=   88.19 GHz
     lambda(   12)=  0.0793   gamma=  307.77 GHz
     lambda(   13)=  0.0104   gamma=   41.99 GHz
     lambda(   14)=  0.0288   gamma=  117.84 GHz
     lambda(   15)=  0.0050   gamma=   22.28 GHz
     lambda(   16)=  0.0105   gamma=   47.13 GHz
     lambda(   17)=  0.0148   gamma=   69.41 GHz
     lambda(   18)=  0.0131   gamma=   68.68 GHz
     lambda(   19)=  0.0068   gamma=   37.25 GHz
     lambda(   20)=  0.0104   gamma=   72.48 GHz
     lambda(   21)=  0.0111   gamma=   89.04 GHz
     Gaussian Broadening:   0.035 Ry, ngauss=   0
     DOS =  2.381114 states/spin/Ry/Unit Cell at Ef= 17.143351 eV
     lambda(    1)=  0.1135   gamma=   16.03 GHz
     lambda(    2)=  0.0995   gamma=   20.93 GHz
     lambda(    3)=  0.0377   gamma=   15.70 GHz
     lambda(    4)=  0.4042   gamma=  783.06 GHz
     lambda(    5)=  0.1081   gamma=  221.75 GHz
     lambda(    6)=  0.1922   gamma=  418.38 GHz
     lambda(    7)=  0.2095   gamma=  594.02 GHz
     lambda(    8)=  0.1245   gamma=  400.91 GHz
     lambda(    9)=  0.0649   gamma=  223.53 GHz
     lambda(   10)=  0.0833   gamma=  292.57 GHz
     lambda(   11)=  0.0237   gamma=   89.86 GHz
     lambda(   12)=  0.0797   gamma=  312.03 GHz
     lambda(   13)=  0.0105   gamma=   42.98 GHz
     lambda(   14)=  0.0290   gamma=  119.72 GHz
     lambda(   15)=  0.0051   gamma=   23.00 GHz
     lambda(   16)=  0.0111   gamma=   50.22 GHz
     lambda(   17)=  0.0154   gamma=   72.79 GHz
     lambda(   18)=  0.0134   gamma=   71.00 GHz
     lambda(   19)=  0.0071   gamma=   38.82 GHz
     lambda(   20)=  0.0109   gamma=   76.70 GHz
     lambda(   21)=  0.0122   gamma=   98.36 GHz
     Gaussian Broadening:   0.040 Ry, ngauss=   0
     DOS =  2.398900 states/spin/Ry/Unit Cell at Ef= 17.142416 eV
     lambda(    1)=  0.1140   gamma=   16.22 GHz
     lambda(    2)=  0.1007   gamma=   21.32 GHz
     lambda(    3)=  0.0379   gamma=   15.91 GHz
     lambda(    4)=  0.4043   gamma=  789.17 GHz
     lambda(    5)=  0.1101   gamma=  227.51 GHz
     lambda(    6)=  0.1967   gamma=  431.36 GHz
     lambda(    7)=  0.2102   gamma=  600.37 GHz
     lambda(    8)=  0.1258   gamma=  408.21 GHz
     lambda(    9)=  0.0651   gamma=  225.69 GHz
     lambda(   10)=  0.0842   gamma=  297.83 GHz
     lambda(   11)=  0.0240   gamma=   91.50 GHz
     lambda(   12)=  0.0797   gamma=  314.37 GHz
     lambda(   13)=  0.0107   gamma=   44.13 GHz
     lambda(   14)=  0.0291   gamma=  121.01 GHz
     lambda(   15)=  0.0052   gamma=   23.41 GHz
     lambda(   16)=  0.0116   gamma=   52.62 GHz
     lambda(   17)=  0.0159   gamma=   75.72 GHz
     lambda(   18)=  0.0137   gamma=   73.08 GHz
     lambda(   19)=  0.0073   gamma=   40.41 GHz
     lambda(   20)=  0.0113   gamma=   79.79 GHz
     lambda(   21)=  0.0131   gamma=  107.05 GHz
     Gaussian Broadening:   0.045 Ry, ngauss=   0
     DOS =  2.416850 states/spin/Ry/Unit Cell at Ef= 17.141341 eV
     lambda(    1)=  0.1144   gamma=   16.40 GHz
     lambda(    2)=  0.1020   gamma=   21.78 GHz
     lambda(    3)=  0.0381   gamma=   16.10 GHz
     lambda(    4)=  0.4035   gamma=  793.45 GHz
     lambda(    5)=  0.1120   gamma=  233.08 GHz
     lambda(    6)=  0.2008   gamma=  443.81 GHz
     lambda(    7)=  0.2109   gamma=  606.99 GHz
     lambda(    8)=  0.1271   gamma=  415.20 GHz
     lambda(    9)=  0.0651   gamma=  227.63 GHz
     lambda(   10)=  0.0852   gamma=  303.47 GHz
     lambda(   11)=  0.0242   gamma=   93.21 GHz
     lambda(   12)=  0.0795   gamma=  315.97 GHz
     lambda(   13)=  0.0110   gamma=   45.44 GHz
     lambda(   14)=  0.0292   gamma=  122.09 GHz
     lambda(   15)=  0.0052   gamma=   23.78 GHz
     lambda(   16)=  0.0119   gamma=   54.74 GHz
     lambda(   17)=  0.0164   gamma=   78.58 GHz
     lambda(   18)=  0.0140   gamma=   75.17 GHz
     lambda(   19)=  0.0075   gamma=   41.97 GHz
     lambda(   20)=  0.0116   gamma=   82.60 GHz
     lambda(   21)=  0.0140   gamma=  115.37 GHz
     Gaussian Broadening:   0.050 Ry, ngauss=   0
     DOS =  2.436152 states/spin/Ry/Unit Cell at Ef= 17.140123 eV
     lambda(    1)=  0.1148   gamma=   16.58 GHz
     lambda(    2)=  0.1036   gamma=   22.30 GHz
     lambda(    3)=  0.0382   gamma=   16.29 GHz
     lambda(    4)=  0.4022   gamma=  797.26 GHz
     lambda(    5)=  0.1139   gamma=  238.87 GHz
     lambda(    6)=  0.2049   gamma=  456.45 GHz
     lambda(    7)=  0.2116   gamma=  613.92 GHz
     lambda(    8)=  0.1283   gamma=  422.63 GHz
     lambda(    9)=  0.0652   gamma=  229.67 GHz
     lambda(   10)=  0.0862   gamma=  309.71 GHz
     lambda(   11)=  0.0245   gamma=   95.06 GHz
     lambda(   12)=  0.0792   gamma=  317.24 GHz
     lambda(   13)=  0.0112   gamma=   46.94 GHz
     lambda(   14)=  0.0292   gamma=  123.10 GHz
     lambda(   15)=  0.0053   gamma=   24.23 GHz
     lambda(   16)=  0.0123   gamma=   56.82 GHz
     lambda(   17)=  0.0169   gamma=   81.56 GHz
     lambda(   18)=  0.0143   gamma=   77.39 GHz
     lambda(   19)=  0.0077   gamma=   43.52 GHz
     lambda(   20)=  0.0119   gamma=   85.54 GHz
     lambda(   21)=  0.0149   gamma=  123.41 GHz
 
 
     Number of q in the star =   24
     List of q in the star:
          1   0.000000000  -0.216506400   0.433012700
          2  -0.000000000  -0.216506400  -0.433012700
          3   0.000000000   0.216506400  -0.433012700
          4  -0.216506400   0.000000000  -0.433012700
          5   0.216506400  -0.000000000  -0.433012700
          6  -0.216506400  -0.000000000   0.433012700
          7   0.216506400   0.000000000   0.433012700
          8   0.433012700   0.216506400   0.000000000
          9  -0.433012700   0.216506400  -0.000000000
         10   0.433012700  -0.216506400  -0.000000000
         11  -0.433012700  -0.216506400   0.000000000
         12  -0.000000000   0.433012700  -0.216506400
         13  -0.000000000  -0.433012700   0.216506400
         14   0.000000000   0.433012700   0.216506400
         15   0.000000000  -0.433012700  -0.216506400
         16  -0.216506400   0.433012700   0.000000000
         17   0.216506400   0.433012700  -0.000000000
         18  -0.216506400  -0.433012700  -0.000000000
         19   0.216506400  -0.433012700   0.000000000
         20   0.433012700   0.000000000  -0.216506400
         21   0.433012700  -0.000000000   0.216506400
         22  -0.433012700  -0.000000000  -0.216506400
         23  -0.433012700   0.000000000   0.216506400
         24   0.000000000   0.216506400   0.433012700
 
     init_run     :      0.08s CPU      0.33s WALL (       1 calls)
     electrons    :     31.64s CPU     34.58s WALL (       1 calls)

     Called by init_run:
     wfcinit      :      0.00s CPU      0.11s WALL (       1 calls)
     potinit      :      0.01s CPU      0.12s WALL (       1 calls)
     hinit0       :      0.03s CPU      0.03s WALL (       1 calls)

     Called by electrons:
     c_bands      :     31.60s CPU     34.53s WALL (       1 calls)
     v_of_rho     :      0.01s CPU      0.05s WALL (       2 calls)
     newd         :      0.02s CPU      0.04s WALL (       2 calls)

     Called by c_bands:
     init_us_2    :      3.77s CPU      4.19s WALL (  141984 calls)
     cegterg      :     16.83s CPU     18.12s WALL (    1103 calls)

     Called by *egterg:
     cdiaghg      :      5.83s CPU      6.26s WALL (   17259 calls)
     h_psi        :   2592.73s CPU   3138.07s WALL ( 1608001 calls)
     s_psi        :     32.27s CPU     36.62s WALL ( 3313512 calls)
     g_psi        :      0.05s CPU      0.06s WALL (   16171 calls)

     Called by h_psi:
     h_psi:calbec :     29.28s CPU     32.92s WALL ( 1608001 calls)
     vloc_psi     :   2534.41s CPU   3072.31s WALL ( 1608001 calls)
     add_vuspsi   :     15.33s CPU     17.38s WALL ( 1608001 calls)

     General routines
     calbec       :    107.99s CPU    116.46s WALL ( 3494120 calls)
     fft          :      0.63s CPU      1.01s WALL (    4119 calls)
     ffts         :      0.80s CPU      0.91s WALL (   12335 calls)
     fftw         :   3694.96s CPU   4506.88s WALL (21801378 calls)
     interpolate  :      0.30s CPU      0.37s WALL (     449 calls)
     davcio       :     23.88s CPU    882.23s WALL (  620559 calls)
 
     Parallel routines
 
     PHONON       :      1h44m CPU      2h16m WALL

     INITIALIZATION: 
     phq_setup    :      0.01s CPU      0.03s WALL (       1 calls)
     phq_init     :     20.61s CPU     23.53s WALL (       1 calls)
 
     phq_init     :     20.61s CPU     23.53s WALL (       1 calls)
     set_drhoc    :      0.04s CPU      0.04s WALL (       3 calls)
     init_vloc    :      0.00s CPU      0.01s WALL (       2 calls)
     init_us_1    :      0.05s CPU      0.09s WALL (       2 calls)
     newd         :      0.02s CPU      0.04s WALL (       2 calls)
     dvanqq       :      0.17s CPU      0.17s WALL (       1 calls)
     drho         :     13.30s CPU     15.19s WALL (       1 calls)
 
     DYNAMICAL MATRIX:
     dynmat0      :      5.36s CPU      6.11s WALL (       1 calls)
     phqscf       :   6205.99s CPU   8069.53s WALL (       1 calls)
     dynmatrix    :      0.15s CPU      0.20s WALL (       1 calls)
 
     phqscf       :   6205.99s CPU   8069.53s WALL (       1 calls)
     solve_linter :   6152.69s CPU   8007.16s WALL (      21 calls)
     drhodv       :     53.27s CPU     58.84s WALL (      21 calls)
 
     dynmat0      :      5.36s CPU      6.11s WALL (       1 calls)
     dynmat_us    :      5.32s CPU      6.03s WALL (       1 calls)
     d2ionq       :      0.01s CPU      0.01s WALL (       1 calls)
     dynmatcc     :      0.03s CPU      0.03s WALL (       1 calls)
 
     dynmat_us    :      5.32s CPU      6.03s WALL (       1 calls)
     addusdynmat  :      0.00s CPU      0.00s WALL (       1 calls)
 
     phqscf       :   6205.99s CPU   8069.53s WALL (       1 calls)
     solve_linter :   6152.69s CPU   8007.16s WALL (      21 calls)
 
     solve_linter :   6152.69s CPU   8007.16s WALL (      21 calls)
     dvqpsi_us    :     16.97s CPU     18.40s WALL (   11424 calls)
     ortho        :     69.61s CPU     72.62s WALL (  115872 calls)
     cgsolve      :   2702.61s CPU   3262.88s WALL (  115872 calls)
     incdrhoscf   :    590.90s CPU    730.21s WALL (  115872 calls)
     addusddens   :      3.59s CPU      4.37s WALL (     234 calls)
     vpsifft      :    634.68s CPU    777.97s WALL (  115872 calls)
     dv_of_drho   :      0.53s CPU      0.56s WALL (     213 calls)
     mix_pot      :     28.69s CPU     68.91s WALL (     213 calls)
     psymdvscf    :      7.28s CPU      8.05s WALL (     213 calls)
     newdq        :      2.92s CPU      2.93s WALL (     213 calls)
     adddvscf     :      3.76s CPU      4.27s WALL (  115872 calls)
     drhodvus     :     11.24s CPU     20.71s WALL (      21 calls)
 
     dvqpsi_us    :     16.97s CPU     18.40s WALL (   11424 calls)
     dvqpsi_us_on :      6.42s CPU      6.81s WALL (   11424 calls)
 
     cgsolve      :   2702.61s CPU   3262.88s WALL (  115872 calls)
     ch_psi       :   2682.24s CPU   3239.60s WALL ( 1589639 calls)
 
     ch_psi       :   2682.24s CPU   3239.60s WALL ( 1589639 calls)
     h_psi        :   2592.73s CPU   3138.07s WALL ( 1608001 calls)
     last         :     65.78s CPU     74.30s WALL ( 1589639 calls)
 
     h_psi        :   2592.73s CPU   3138.07s WALL ( 1608001 calls)
     add_vuspsi   :     15.33s CPU     17.38s WALL ( 1608001 calls)
 
     incdrhoscf   :    590.90s CPU    730.21s WALL (  115872 calls)
     addusdbec    :      3.69s CPU      4.11s WALL (  127296 calls)
 
     drhodvus     :     11.24s CPU     20.71s WALL (      21 calls)
 
      Electron-phonon coupling
     elphel       :    161.80s CPU    219.65s WALL (      21 calls)
     elphsum      :     31.68s CPU     32.46s WALL (       1 calls)
 
      General routines
     calbec       :    107.99s CPU    116.46s WALL ( 3494120 calls)
     fft          :      0.63s CPU      1.01s WALL (    4119 calls)
     ffts         :      0.80s CPU      0.91s WALL (   12335 calls)
     fftw         :   3694.96s CPU   4506.88s WALL (21801378 calls)
     davcio       :     23.88s CPU    882.23s WALL (  620559 calls)
     write_rec    :      0.18s CPU     39.29s WALL (     234 calls)
 
 
     PHONON       :      1h44m CPU      2h16m WALL

 
   This run was terminated on:  10:20:38  22Jul2022            

=------------------------------------------------------------------------------=
   JOB DONE.
=------------------------------------------------------------------------------=
