
     Program PHONON v.6.8 starts on 22Jul2022 at 12: 7:57 

     This program is part of the open-source Quantum ESPRESSO suite
     for quantum simulation of materials; please cite
         "P. Giannozzi et al., J. Phys.:Condens. Matter 21 395502 (2009);
         "P. Giannozzi et al., J. Phys.:Condens. Matter 29 465901 (2017);
         "P. Giannozzi et al., J. Chem. Phys. 152 154105 (2020);
          URL http://www.quantum-espresso.org", 
     in publications or presentations arising from this work. More details at
     http://www.quantum-espresso.org/quote

     Parallel version (MPI), running on    48 processors

     MPI processes distributed on     1 nodes
     K-points division:     npool     =       4
     R & G space division:  proc/nbgrp/npool/nimage =      12
     188594 MiB available memory on the printing compute node when the environment starts
 
     Waiting for input...
     Reading input from standard input

     Reading xml data from directory:

     ./tmp/Ca1H6.save/

     IMPORTANT: XC functional enforced from input :
     Exchange-correlation= PBE
                           (   1   4   3   4   0   0   0)
     Any further DFT definition will be discarded
     Please, verify this is what you really want

 
     Parallelization info
     --------------------
     sticks:   dense  smooth     PW     G-vecs:    dense   smooth      PW
     Min         139      46     17                 3602      698     155
     Max         140      47     18                 3604      701     157
     Sum        1669     557    205                43227     8391    1865
 
     Using Slab Decomposition
 
     Reading collected, re-writing distributed wavefunctions

     Saving dvscf to file. Distribute only q points, not irreducible represetations.

     Calculation of q =   -0.8660254  -0.8660254  -0.8660254

     Subspace diagonalization in iterative solution of the eigenvalue problem:
     a serial algorithm will be used

 
     Parallelization info
     --------------------
     sticks:   dense  smooth     PW     G-vecs:    dense   smooth      PW
     Min         139      46     23                 3602      698     254
     Max         140      47     24                 3604      701     257
     Sum        1669     557    283                43227     8391    3055
 
     Using Slab Decomposition
 

     Title: 
     Electron-phonon coefficients for Ca1H6                                     


     bravais-lattice index     =            0
     lattice parameter (alat)  =       5.5613  a.u.
     unit-cell volume          =     132.4087 (a.u.)^3
     number of atoms/cell      =            7
     number of atomic types    =            2
     number of electrons       =        16.00
     number of Kohn-Sham states=           12
     kinetic-energy cutoff     =      60.0000  Ry
     charge density cutoff     =     720.0000  Ry
     Exchange-correlation= PBE
                           (   1   4   3   4   0   0   0)

     celldm(1)=   5.561340  celldm(2)=   0.000000  celldm(3)=   0.000000
     celldm(4)=   0.000000  celldm(5)=   0.000000  celldm(6)=   0.000000

     crystal axes: (cart. coord. in units of alat)
               a(1) = (  -0.577350   0.577350   0.577350 )  
               a(2) = (   0.577350  -0.577350   0.577350 )  
               a(3) = (   0.577350   0.577350  -0.577350 )  

     reciprocal axes: (cart. coord. in units 2 pi/alat)
               b(1) = ( -0.000000  0.866025  0.866025 )  
               b(2) = (  0.866025 -0.000000  0.866025 )  
               b(3) = (  0.866025  0.866025  0.000000 )  


     PseudoPot. # 1 for Ca read from file:
     /work/home/mayuan/code/my_script/scripts_tests/out2/200.0/pp/ca_pbe_v1.uspp.F.UPF
     MD5 check sum: 403a4c14b9e4d4dfdc3024c9a3812218
     Pseudo is Ultrasoft + core correction, Zval = 10.0
     Generated by new atomic code, or converted to UPF format
     Using radial grid of  845 points,  6 beta functions with: 
                l(1) =   0
                l(2) =   0
                l(3) =   1
                l(4) =   1
                l(5) =   2
                l(6) =   2
     Q(r) pseudized with  8 coefficients,  rinner =    1.500   1.500   1.500
                                                       1.500   1.500

     PseudoPot. # 2 for H  read from file:
     /work/home/mayuan/code/my_script/scripts_tests/out2/200.0/pp/h_pbe_v1.uspp.F.UPF
     MD5 check sum: 3408e3ff4ec8b0a4e358431e7e038a48
     Pseudo is Ultrasoft, Zval =  1.0
     Generated by new atomic code, or converted to UPF format
     Using radial grid of  615 points,  2 beta functions with: 
                l(1) =   0
                l(2) =   0
     Q(r) pseudized with  8 coefficients,  rinner =    0.700

     atomic species   valence    mass     pseudopotential
        Ca            10.00    40.07800     Ca( 1.00)
        H              1.00     1.00794     H ( 1.00)

     48 Sym. Ops., with inversion, found



   Cartesian axes

     site n.     atom                  positions (alat units)
         1           Ca  tau(   1) = (   0.0000000   0.0000000   0.0000000  )
         2           H   tau(   2) = (   0.2886751   0.0000000   0.5773503  )
         3           H   tau(   3) = (   0.2886751   0.5773503   0.0000000  )
         4           H   tau(   4) = (   0.5773503   0.2886751   0.0000000  )
         5           H   tau(   5) = (   0.0000000   0.2886751   0.5773503  )
         6           H   tau(   6) = (   0.0000000   0.5773503   0.2886751  )
         7           H   tau(   7) = (   0.5773503   0.0000000   0.2886751  )

     number of k points=   290  Methfessel-Paxton smearing, width (Ry)=  0.0200

     Number of k-points >= 100: set verbosity='high' to print them.

     Dense  grid:    43227 G-vectors     FFT dimensions: (  48,  48,  48)

     Smooth grid:     8391 G-vectors     FFT dimensions: (  27,  27,  27)

     Estimated max dynamical RAM per process >       8.53 MB

     Estimated total dynamical RAM >     409.48 MB

     The potential is recalculated from file :
     ./tmp/_ph0/Ca1H6.save/charge-density

     Starting wfcs are   16 atomic wfcs

     Band Structure Calculation
     Davidson diagonalization with overlap

     ethr =  6.25E-11,  avg # of iterations = 14.4

     total cpu time spent up to now is        2.4 secs

     End of band structure calculation

     Number of k-points >= 100: set verbosity='high' to print the bands.

     the Fermi energy is    17.0980 ev

     Writing output data file ./tmp/_ph0/Ca1H6.save/

     Electron-phonon coefficients for Ca1H6                                     

     bravais-lattice index     =            0
     lattice parameter (alat)  =       5.5613  a.u.
     unit-cell volume          =     132.4087 (a.u.)^3
     number of atoms/cell      =            7
     number of atomic types    =            2
     kinetic-energy cut-off    =      60.0000  Ry
     charge density cut-off    =     720.0000  Ry
     convergence threshold     =      1.0E-16
     beta                      =       0.7000
     number of iterations used =            4
     Exchange-correlation= PBE
                           (   1   4   3   4   0   0   0)


     celldm(1)=    5.56134  celldm(2)=    0.00000  celldm(3)=    0.00000
     celldm(4)=    0.00000  celldm(5)=    0.00000  celldm(6)=    0.00000

     crystal axes: (cart. coord. in units of alat)
               a(1) = ( -0.5774  0.5774  0.5774 )  
               a(2) = (  0.5774 -0.5774  0.5774 )  
               a(3) = (  0.5774  0.5774 -0.5774 )  

     reciprocal axes: (cart. coord. in units 2 pi/alat)
               b(1) = ( -0.0000  0.8660  0.8660 )  
               b(2) = (  0.8660 -0.0000  0.8660 )  
               b(3) = (  0.8660  0.8660  0.0000 )  


     Atoms inside the unit cell: 

     Cartesian axes

     site n.  atom      mass           positions (alat units)
        1     Ca  40.0780   tau(    1) = (    0.00000    0.00000    0.00000  )
        2     H    1.0079   tau(    2) = (    0.28868    0.00000    0.57735  )
        3     H    1.0079   tau(    3) = (    0.28868    0.57735    0.00000  )
        4     H    1.0079   tau(    4) = (    0.57735    0.28868    0.00000  )
        5     H    1.0079   tau(    5) = (    0.00000    0.28868    0.57735  )
        6     H    1.0079   tau(    6) = (    0.00000    0.57735    0.28868  )
        7     H    1.0079   tau(    7) = (    0.57735    0.00000    0.28868  )

     Computing dynamical matrix for 
                    q = (  -0.8660254  -0.8660254  -0.8660254 )
 
     49 Sym.Ops. (with q -> -q+G )


     G cutoff =  564.0682  (   3604 G-vectors)     FFT grid: ( 48, 48, 48)
     G cutoff =  188.0227  (    701 G-vectors)  smooth grid: ( 27, 27, 27)

     number of k points=   290  Methfessel-Paxton smearing, width (Ry)=  0.0200

     PseudoPot. # 1 for Ca read from file:
     /work/home/mayuan/code/my_script/scripts_tests/out2/200.0/pp/ca_pbe_v1.uspp.F.UPF
     MD5 check sum: 403a4c14b9e4d4dfdc3024c9a3812218
     Pseudo is Ultrasoft + core correction, Zval = 10.0
     Generated by new atomic code, or converted to UPF format
     Using radial grid of  845 points,  6 beta functions with: 
                l(1) =   0
                l(2) =   0
                l(3) =   1
                l(4) =   1
                l(5) =   2
                l(6) =   2
     Q(r) pseudized with  8 coefficients,  rinner =    1.500   1.500   1.500
                                                       1.500   1.500

     PseudoPot. # 2 for H  read from file:
     /work/home/mayuan/code/my_script/scripts_tests/out2/200.0/pp/h_pbe_v1.uspp.F.UPF
     MD5 check sum: 3408e3ff4ec8b0a4e358431e7e038a48
     Pseudo is Ultrasoft, Zval =  1.0
     Generated by new atomic code, or converted to UPF format
     Using radial grid of  615 points,  2 beta functions with: 
                l(1) =   0
                l(2) =   0
     Q(r) pseudized with  8 coefficients,  rinner =    0.700

     Mode symmetry, O_h (m-3m)  point group:


     Atomic displacements:
     There are    8 irreducible representations

     Representation     1      1 modes -  To be done

     Representation     2      2 modes -  To be done

     Representation     3      3 modes -  To be done

     Representation     4      3 modes -  To be done

     Representation     5      3 modes -  To be done

     Representation     6      3 modes -  To be done

     Representation     7      3 modes -  To be done

     Representation     8      3 modes -  To be done



     Alpha used in Ewald sum =   2.8000
     PHONON       :      5.31s CPU      9.26s WALL



     Representation #   1 mode #   1

     Self-consistent Calculation

      iter #   1 total cpu time :    10.8 secs   av.it.:   3.8
      thresh= 1.000E-02 alpha_mix =  0.700 |ddv_scf|^2 =  6.241E-07

      iter #   2 total cpu time :    14.5 secs   av.it.:   8.4
      thresh= 7.900E-05 alpha_mix =  0.700 |ddv_scf|^2 =  1.882E-07

      iter #   3 total cpu time :    17.2 secs   av.it.:   8.4
      thresh= 4.338E-05 alpha_mix =  0.700 |ddv_scf|^2 =  1.758E-09

      iter #   4 total cpu time :    20.3 secs   av.it.:   8.4
      thresh= 4.192E-06 alpha_mix =  0.700 |ddv_scf|^2 =  2.671E-11

      iter #   5 total cpu time :    24.4 secs   av.it.:   8.3
      thresh= 5.168E-07 alpha_mix =  0.700 |ddv_scf|^2 =  1.776E-13

      iter #   6 total cpu time :    28.1 secs   av.it.:   8.2
      thresh= 4.215E-08 alpha_mix =  0.700 |ddv_scf|^2 =  1.864E-16

      iter #   7 total cpu time :    31.1 secs   av.it.:   7.7
      thresh= 1.365E-09 alpha_mix =  0.700 |ddv_scf|^2 =  1.680E-17

     End of self-consistent calculation

     Convergence has been achieved 


     Representation #   2 modes #   2   3

     Self-consistent Calculation

      iter #   1 total cpu time :    35.7 secs   av.it.:   3.7
      thresh= 1.000E-02 alpha_mix =  0.700 |ddv_scf|^2 =  1.340E-07

      iter #   2 total cpu time :    40.0 secs   av.it.:   9.3
      thresh= 3.660E-05 alpha_mix =  0.700 |ddv_scf|^2 =  4.485E-08

      iter #   3 total cpu time :    45.1 secs   av.it.:   9.1
      thresh= 2.118E-05 alpha_mix =  0.700 |ddv_scf|^2 =  3.530E-11

      iter #   4 total cpu time :    49.7 secs   av.it.:   8.5
      thresh= 5.941E-07 alpha_mix =  0.700 |ddv_scf|^2 =  3.164E-14

      iter #   5 total cpu time :    54.9 secs   av.it.:   8.6
      thresh= 1.779E-08 alpha_mix =  0.700 |ddv_scf|^2 =  1.548E-15

      iter #   6 total cpu time :    58.9 secs   av.it.:   8.3
      thresh= 3.934E-09 alpha_mix =  0.700 |ddv_scf|^2 =  2.040E-18

     End of self-consistent calculation

     Convergence has been achieved 


     Representation #   3 modes #   4   5   6

     Self-consistent Calculation

      iter #   1 total cpu time :    69.8 secs   av.it.:   3.1
      thresh= 1.000E-02 alpha_mix =  0.700 |ddv_scf|^2 =  5.277E-10

      iter #   2 total cpu time :    77.1 secs   av.it.:   9.5
      thresh= 2.297E-06 alpha_mix =  0.700 |ddv_scf|^2 =  4.978E-11

      iter #   3 total cpu time :    84.5 secs   av.it.:   8.9
      thresh= 7.055E-07 alpha_mix =  0.700 |ddv_scf|^2 =  2.502E-14

      iter #   4 total cpu time :    91.0 secs   av.it.:   8.1
      thresh= 1.582E-08 alpha_mix =  0.700 |ddv_scf|^2 =  7.198E-17

     End of self-consistent calculation

     Convergence has been achieved 


     Representation #   4 modes #   7   8   9

     Self-consistent Calculation

      iter #   1 total cpu time :   100.3 secs   av.it.:   3.8
      thresh= 1.000E-02 alpha_mix =  0.700 |ddv_scf|^2 =  4.078E-09

      iter #   2 total cpu time :   106.5 secs   av.it.:   9.9
      thresh= 6.386E-06 alpha_mix =  0.700 |ddv_scf|^2 =  1.252E-10

      iter #   3 total cpu time :   111.9 secs   av.it.:  10.1
      thresh= 1.119E-06 alpha_mix =  0.700 |ddv_scf|^2 =  1.836E-12

      iter #   4 total cpu time :   118.0 secs   av.it.:   9.6
      thresh= 1.355E-07 alpha_mix =  0.700 |ddv_scf|^2 =  9.112E-15

      iter #   5 total cpu time :   123.8 secs   av.it.:  10.1
      thresh= 9.546E-09 alpha_mix =  0.700 |ddv_scf|^2 =  4.019E-17

     End of self-consistent calculation

     Convergence has been achieved 


     Representation #   5 modes #  10  11  12

     Self-consistent Calculation

      iter #   1 total cpu time :   133.0 secs   av.it.:   6.4
      thresh= 1.000E-02 alpha_mix =  0.700 |ddv_scf|^2 =  3.967E-06

      iter #   2 total cpu time :   140.3 secs   av.it.:  10.5
      thresh= 1.992E-04 alpha_mix =  0.700 |ddv_scf|^2 =  1.859E-06

      iter #   3 total cpu time :   146.8 secs   av.it.:   9.9
      thresh= 1.364E-04 alpha_mix =  0.700 |ddv_scf|^2 =  4.283E-10

      iter #   4 total cpu time :   153.1 secs   av.it.:  10.6
      thresh= 2.070E-06 alpha_mix =  0.700 |ddv_scf|^2 =  4.285E-11

      iter #   5 total cpu time :   159.1 secs   av.it.:  10.1
      thresh= 6.546E-07 alpha_mix =  0.700 |ddv_scf|^2 =  4.603E-13

      iter #   6 total cpu time :   164.9 secs   av.it.:  10.2
      thresh= 6.784E-08 alpha_mix =  0.700 |ddv_scf|^2 =  1.640E-15

      iter #   7 total cpu time :   171.3 secs   av.it.:   9.6
      thresh= 4.050E-09 alpha_mix =  0.700 |ddv_scf|^2 =  1.272E-16

      iter #   8 total cpu time :   176.9 secs   av.it.:  10.0
      thresh= 1.128E-09 alpha_mix =  0.700 |ddv_scf|^2 =  9.425E-20

     End of self-consistent calculation

     Convergence has been achieved 


     Representation #   6 modes #  13  14  15

     Self-consistent Calculation

      iter #   1 total cpu time :   186.3 secs   av.it.:   4.4
      thresh= 1.000E-02 alpha_mix =  0.700 |ddv_scf|^2 =  1.442E-07

      iter #   2 total cpu time :   193.1 secs   av.it.:  10.4
      thresh= 3.797E-05 alpha_mix =  0.700 |ddv_scf|^2 =  5.935E-08

      iter #   3 total cpu time :   200.5 secs   av.it.:  10.0
      thresh= 2.436E-05 alpha_mix =  0.700 |ddv_scf|^2 =  9.344E-11

      iter #   4 total cpu time :   206.6 secs   av.it.:  10.3
      thresh= 9.666E-07 alpha_mix =  0.700 |ddv_scf|^2 =  1.288E-12

      iter #   5 total cpu time :   211.3 secs   av.it.:  10.3
      thresh= 1.135E-07 alpha_mix =  0.700 |ddv_scf|^2 =  4.237E-14

      iter #   6 total cpu time :   218.6 secs   av.it.:  10.2
      thresh= 2.058E-08 alpha_mix =  0.700 |ddv_scf|^2 =  1.144E-16

      iter #   7 total cpu time :   225.8 secs   av.it.:  10.0
      thresh= 1.070E-09 alpha_mix =  0.700 |ddv_scf|^2 =  1.267E-17

     End of self-consistent calculation

     Convergence has been achieved 


     Representation #   7 modes #  16  17  18

     Self-consistent Calculation

      iter #   1 total cpu time :   234.6 secs   av.it.:   3.4
      thresh= 1.000E-02 alpha_mix =  0.700 |ddv_scf|^2 =  8.330E-10

      iter #   2 total cpu time :   241.5 secs   av.it.:   9.6
      thresh= 2.886E-06 alpha_mix =  0.700 |ddv_scf|^2 =  6.815E-11

      iter #   3 total cpu time :   248.6 secs   av.it.:   9.3
      thresh= 8.255E-07 alpha_mix =  0.700 |ddv_scf|^2 =  1.460E-13

      iter #   4 total cpu time :   254.9 secs   av.it.:   8.8
      thresh= 3.820E-08 alpha_mix =  0.700 |ddv_scf|^2 =  1.614E-16

      iter #   5 total cpu time :   259.3 secs   av.it.:   8.6
      thresh= 1.270E-09 alpha_mix =  0.700 |ddv_scf|^2 =  9.759E-18

     End of self-consistent calculation

     Convergence has been achieved 


     Representation #   8 modes #  19  20  21

     Self-consistent Calculation

      iter #   1 total cpu time :   267.9 secs   av.it.:   3.2
      thresh= 1.000E-02 alpha_mix =  0.700 |ddv_scf|^2 =  4.908E-10

      iter #   2 total cpu time :   274.4 secs   av.it.:   9.7
      thresh= 2.215E-06 alpha_mix =  0.700 |ddv_scf|^2 =  4.548E-11

      iter #   3 total cpu time :   280.7 secs   av.it.:   9.1
      thresh= 6.744E-07 alpha_mix =  0.700 |ddv_scf|^2 =  3.235E-14

      iter #   4 total cpu time :   286.9 secs   av.it.:  10.1
      thresh= 1.799E-08 alpha_mix =  0.700 |ddv_scf|^2 =  1.079E-16

      iter #   5 total cpu time :   292.9 secs   av.it.:   9.9
      thresh= 1.039E-09 alpha_mix =  0.700 |ddv_scf|^2 =  9.316E-18

     End of self-consistent calculation

     Convergence has been achieved 
 
     Number of q in the star =    1
     List of q in the star:
          1  -0.866025400  -0.866025400  -0.866025400

     Diagonalizing the dynamical matrix

     q = (   -0.866025400  -0.866025400  -0.866025400 ) 

 **************************************************************************
     freq (    1) =       8.836130 [THz] =     294.741568 [cm-1]
     freq (    2) =       8.836130 [THz] =     294.741568 [cm-1]
     freq (    3) =       8.836130 [THz] =     294.741568 [cm-1]
     freq (    4) =      27.349410 [THz] =     912.278114 [cm-1]
     freq (    5) =      27.349410 [THz] =     912.278114 [cm-1]
     freq (    6) =      27.349410 [THz] =     912.278114 [cm-1]
     freq (    7) =      27.655706 [THz] =     922.495041 [cm-1]
     freq (    8) =      27.655706 [THz] =     922.495041 [cm-1]
     freq (    9) =      27.655706 [THz] =     922.495041 [cm-1]
     freq (   10) =      41.083038 [THz] =    1370.382629 [cm-1]
     freq (   11) =      41.083038 [THz] =    1370.382629 [cm-1]
     freq (   12) =      41.083038 [THz] =    1370.382629 [cm-1]
     freq (   13) =      44.509842 [THz] =    1484.688504 [cm-1]
     freq (   14) =      44.509842 [THz] =    1484.688504 [cm-1]
     freq (   15) =      44.509842 [THz] =    1484.688504 [cm-1]
     freq (   16) =      44.633785 [THz] =    1488.822795 [cm-1]
     freq (   17) =      44.633785 [THz] =    1488.822795 [cm-1]
     freq (   18) =      44.633785 [THz] =    1488.822795 [cm-1]
     freq (   19) =      57.767506 [THz] =    1926.916590 [cm-1]
     freq (   20) =      58.213170 [THz] =    1941.782349 [cm-1]
     freq (   21) =      58.213170 [THz] =    1941.782349 [cm-1]
 **************************************************************************

     Mode symmetry, O_h (m-3m)  point group:

     freq (   1-   3) =        294.7  [cm-1]   --> T_1u G_15  G_4-    
     freq (   4-   6) =        912.3  [cm-1]   --> T_2u G_25  G_5-    
     freq (   7-   9) =        922.5  [cm-1]   --> T_2g G_25' G_5+    
     freq (  10-  12) =       1370.4  [cm-1]   --> T_2u G_25  G_5-    
     freq (  13-  15) =       1484.7  [cm-1]   --> T_1g G_15' G_4+    
     freq (  16-  18) =       1488.8  [cm-1]   --> T_1u G_15  G_4-    
     freq (  19-  19) =       1926.9  [cm-1]   --> A_1g G_1   G_1+    
     freq (  20-  21) =       1941.8  [cm-1]   --> E_g  G_12  G_3+    
     electron-phonon interaction  ...

     Gaussian Broadening:   0.005 Ry, ngauss=   0
     DOS =  1.900675 states/spin/Ry/Unit Cell at Ef= 17.155196 eV
     lambda(    1)=  0.2759   gamma=   39.10 GHz
     lambda(    2)=  0.2736   gamma=   38.77 GHz
     lambda(    3)=  0.2624   gamma=   37.19 GHz
     lambda(    4)=  0.4432   gamma=  601.72 GHz
     lambda(    5)=  0.4440   gamma=  602.84 GHz
     lambda(    6)=  0.4479   gamma=  608.03 GHz
     lambda(    7)=  2.6557   gamma= 3686.68 GHz
     lambda(    8)=  2.4962   gamma= 3465.26 GHz
     lambda(    9)=  2.7440   gamma= 3809.23 GHz
     lambda(   10)=  0.0046   gamma=   14.02 GHz
     lambda(   11)=  0.0049   gamma=   15.06 GHz
     lambda(   12)=  0.0050   gamma=   15.46 GHz
     lambda(   13)=  0.0245   gamma=   87.99 GHz
     lambda(   14)=  0.0243   gamma=   87.48 GHz
     lambda(   15)=  0.0268   gamma=   96.37 GHz
     lambda(   16)=  0.1127   gamma=  407.64 GHz
     lambda(   17)=  0.1131   gamma=  409.10 GHz
     lambda(   18)=  0.1128   gamma=  407.84 GHz
     lambda(   19)=  0.2009   gamma= 1216.79 GHz
     lambda(   20)=  0.0707   gamma=  434.84 GHz
     lambda(   21)=  0.0579   gamma=  356.01 GHz
     Gaussian Broadening:   0.010 Ry, ngauss=   0
     DOS =  2.130656 states/spin/Ry/Unit Cell at Ef= 17.149400 eV
     lambda(    1)=  0.0923   gamma=   14.66 GHz
     lambda(    2)=  0.0918   gamma=   14.58 GHz
     lambda(    3)=  0.0895   gamma=   14.21 GHz
     lambda(    4)=  0.1275   gamma=  194.10 GHz
     lambda(    5)=  0.1277   gamma=  194.28 GHz
     lambda(    6)=  0.1289   gamma=  196.24 GHz
     lambda(    7)=  0.8232   gamma= 1281.11 GHz
     lambda(    8)=  0.7803   gamma= 1214.30 GHz
     lambda(    9)=  0.8291   gamma= 1290.25 GHz
     lambda(   10)=  0.0014   gamma=    4.65 GHz
     lambda(   11)=  0.0014   gamma=    4.90 GHz
     lambda(   12)=  0.0015   gamma=    5.00 GHz
     lambda(   13)=  0.0073   gamma=   29.39 GHz
     lambda(   14)=  0.0072   gamma=   29.17 GHz
     lambda(   15)=  0.0078   gamma=   31.63 GHz
     lambda(   16)=  0.0415   gamma=  168.09 GHz
     lambda(   17)=  0.0416   gamma=  168.66 GHz
     lambda(   18)=  0.0416   gamma=  168.54 GHz
     lambda(   19)=  0.0934   gamma=  634.36 GHz
     lambda(   20)=  0.0496   gamma=  342.10 GHz
     lambda(   21)=  0.0461   gamma=  318.06 GHz
     Gaussian Broadening:   0.015 Ry, ngauss=   0
     DOS =  2.235086 states/spin/Ry/Unit Cell at Ef= 17.146382 eV
     lambda(    1)=  0.0723   gamma=   12.04 GHz
     lambda(    2)=  0.0721   gamma=   12.01 GHz
     lambda(    3)=  0.0712   gamma=   11.87 GHz
     lambda(    4)=  0.0857   gamma=  136.89 GHz
     lambda(    5)=  0.0857   gamma=  136.86 GHz
     lambda(    6)=  0.0866   gamma=  138.32 GHz
     lambda(    7)=  0.6186   gamma= 1009.77 GHz
     lambda(    8)=  0.5952   gamma=  971.59 GHz
     lambda(    9)=  0.6122   gamma=  999.46 GHz
     lambda(   10)=  0.0010   gamma=    3.50 GHz
     lambda(   11)=  0.0010   gamma=    3.59 GHz
     lambda(   12)=  0.0010   gamma=    3.63 GHz
     lambda(   13)=  0.0053   gamma=   22.32 GHz
     lambda(   14)=  0.0052   gamma=   22.16 GHz
     lambda(   15)=  0.0055   gamma=   23.44 GHz
     lambda(   16)=  0.0357   gamma=  151.91 GHz
     lambda(   17)=  0.0358   gamma=  152.41 GHz
     lambda(   18)=  0.0359   gamma=  152.70 GHz
     lambda(   19)=  0.0797   gamma=  567.64 GHz
     lambda(   20)=  0.0665   gamma=  481.00 GHz
     lambda(   21)=  0.0646   gamma=  467.19 GHz
     Gaussian Broadening:   0.020 Ry, ngauss=   0
     DOS =  2.290454 states/spin/Ry/Unit Cell at Ef= 17.145317 eV
     lambda(    1)=  0.0636   gamma=   10.86 GHz
     lambda(    2)=  0.0635   gamma=   10.85 GHz
     lambda(    3)=  0.0631   gamma=   10.78 GHz
     lambda(    4)=  0.0725   gamma=  118.66 GHz
     lambda(    5)=  0.0726   gamma=  118.72 GHz
     lambda(    6)=  0.0732   gamma=  119.68 GHz
     lambda(    7)=  0.5412   gamma=  905.36 GHz
     lambda(    8)=  0.5231   gamma=  875.01 GHz
     lambda(    9)=  0.5348   gamma=  894.66 GHz
     lambda(   10)=  0.0009   gamma=    3.16 GHz
     lambda(   11)=  0.0009   gamma=    3.22 GHz
     lambda(   12)=  0.0009   gamma=    3.24 GHz
     lambda(   13)=  0.0047   gamma=   20.15 GHz
     lambda(   14)=  0.0046   gamma=   19.98 GHz
     lambda(   15)=  0.0048   gamma=   20.87 GHz
     lambda(   16)=  0.0322   gamma=  140.12 GHz
     lambda(   17)=  0.0323   gamma=  140.55 GHz
     lambda(   18)=  0.0323   gamma=  140.89 GHz
     lambda(   19)=  0.0691   gamma=  504.01 GHz
     lambda(   20)=  0.0693   gamma=  513.40 GHz
     lambda(   21)=  0.0678   gamma=  502.74 GHz
     Gaussian Broadening:   0.025 Ry, ngauss=   0
     DOS =  2.332190 states/spin/Ry/Unit Cell at Ef= 17.144758 eV
     lambda(    1)=  0.0581   gamma=   10.10 GHz
     lambda(    2)=  0.0580   gamma=   10.09 GHz
     lambda(    3)=  0.0578   gamma=   10.06 GHz
     lambda(    4)=  0.0658   gamma=  109.58 GHz
     lambda(    5)=  0.0659   gamma=  109.77 GHz
     lambda(    6)=  0.0663   gamma=  110.40 GHz
     lambda(    7)=  0.4998   gamma=  851.32 GHz
     lambda(    8)=  0.4819   gamma=  820.80 GHz
     lambda(    9)=  0.4931   gamma=  839.90 GHz
     lambda(   10)=  0.0008   gamma=    3.00 GHz
     lambda(   11)=  0.0008   gamma=    3.05 GHz
     lambda(   12)=  0.0008   gamma=    3.07 GHz
     lambda(   13)=  0.0044   gamma=   19.24 GHz
     lambda(   14)=  0.0043   gamma=   19.03 GHz
     lambda(   15)=  0.0045   gamma=   19.76 GHz
     lambda(   16)=  0.0295   gamma=  130.75 GHz
     lambda(   17)=  0.0296   gamma=  131.13 GHz
     lambda(   18)=  0.0296   gamma=  131.40 GHz
     lambda(   19)=  0.0608   gamma=  452.12 GHz
     lambda(   20)=  0.0690   gamma=  520.90 GHz
     lambda(   21)=  0.0677   gamma=  510.69 GHz
     Gaussian Broadening:   0.030 Ry, ngauss=   0
     DOS =  2.360595 states/spin/Ry/Unit Cell at Ef= 17.144134 eV
     lambda(    1)=  0.0552   gamma=    9.72 GHz
     lambda(    2)=  0.0552   gamma=    9.72 GHz
     lambda(    3)=  0.0552   gamma=    9.71 GHz
     lambda(    4)=  0.0623   gamma=  105.00 GHz
     lambda(    5)=  0.0624   gamma=  105.29 GHz
     lambda(    6)=  0.0627   gamma=  105.76 GHz
     lambda(    7)=  0.4802   gamma=  827.96 GHz
     lambda(    8)=  0.4611   gamma=  795.05 GHz
     lambda(    9)=  0.4722   gamma=  814.21 GHz
     lambda(   10)=  0.0008   gamma=    2.93 GHz
     lambda(   11)=  0.0008   gamma=    2.96 GHz
     lambda(   12)=  0.0008   gamma=    2.98 GHz
     lambda(   13)=  0.0042   gamma=   18.90 GHz
     lambda(   14)=  0.0042   gamma=   18.63 GHz
     lambda(   15)=  0.0043   gamma=   19.30 GHz
     lambda(   16)=  0.0280   gamma=  125.57 GHz
     lambda(   17)=  0.0280   gamma=  125.92 GHz
     lambda(   18)=  0.0281   gamma=  126.12 GHz
     lambda(   19)=  0.0569   gamma=  427.86 GHz
     lambda(   20)=  0.0681   gamma=  520.21 GHz
     lambda(   21)=  0.0667   gamma=  509.63 GHz
     Gaussian Broadening:   0.035 Ry, ngauss=   0
     DOS =  2.381114 states/spin/Ry/Unit Cell at Ef= 17.143351 eV
     lambda(    1)=  0.0541   gamma=    9.61 GHz
     lambda(    2)=  0.0542   gamma=    9.62 GHz
     lambda(    3)=  0.0542   gamma=    9.62 GHz
     lambda(    4)=  0.0607   gamma=  103.19 GHz
     lambda(    5)=  0.0609   gamma=  103.55 GHz
     lambda(    6)=  0.0611   gamma=  103.92 GHz
     lambda(    7)=  0.4721   gamma=  821.04 GHz
     lambda(    8)=  0.4521   gamma=  786.24 GHz
     lambda(    9)=  0.4630   gamma=  805.16 GHz
     lambda(   10)=  0.0008   gamma=    2.92 GHz
     lambda(   11)=  0.0008   gamma=    2.95 GHz
     lambda(   12)=  0.0008   gamma=    2.96 GHz
     lambda(   13)=  0.0042   gamma=   18.85 GHz
     lambda(   14)=  0.0041   gamma=   18.55 GHz
     lambda(   15)=  0.0043   gamma=   19.18 GHz
     lambda(   16)=  0.0272   gamma=  123.24 GHz
     lambda(   17)=  0.0273   gamma=  123.59 GHz
     lambda(   18)=  0.0273   gamma=  123.73 GHz
     lambda(   19)=  0.0558   gamma=  423.39 GHz
     lambda(   20)=  0.0667   gamma=  514.17 GHz
     lambda(   21)=  0.0653   gamma=  503.29 GHz
     Gaussian Broadening:   0.040 Ry, ngauss=   0
     DOS =  2.398900 states/spin/Ry/Unit Cell at Ef= 17.142416 eV
     lambda(    1)=  0.0539   gamma=    9.64 GHz
     lambda(    2)=  0.0539   gamma=    9.64 GHz
     lambda(    3)=  0.0540   gamma=    9.65 GHz
     lambda(    4)=  0.0601   gamma=  102.91 GHz
     lambda(    5)=  0.0603   gamma=  103.30 GHz
     lambda(    6)=  0.0605   gamma=  103.62 GHz
     lambda(    7)=  0.4687   gamma=  821.22 GHz
     lambda(    8)=  0.4486   gamma=  785.97 GHz
     lambda(    9)=  0.4591   gamma=  804.41 GHz
     lambda(   10)=  0.0008   gamma=    2.96 GHz
     lambda(   11)=  0.0008   gamma=    2.98 GHz
     lambda(   12)=  0.0008   gamma=    2.99 GHz
     lambda(   13)=  0.0042   gamma=   18.96 GHz
     lambda(   14)=  0.0041   gamma=   18.64 GHz
     lambda(   15)=  0.0042   gamma=   19.25 GHz
     lambda(   16)=  0.0268   gamma=  122.26 GHz
     lambda(   17)=  0.0269   gamma=  122.59 GHz
     lambda(   18)=  0.0269   gamma=  122.72 GHz
     lambda(   19)=  0.0559   gamma=  427.42 GHz
     lambda(   20)=  0.0650   gamma=  504.83 GHz
     lambda(   21)=  0.0636   gamma=  494.03 GHz
     Gaussian Broadening:   0.045 Ry, ngauss=   0
     DOS =  2.416850 states/spin/Ry/Unit Cell at Ef= 17.141341 eV
     lambda(    1)=  0.0540   gamma=    9.74 GHz
     lambda(    2)=  0.0541   gamma=    9.75 GHz
     lambda(    3)=  0.0542   gamma=    9.76 GHz
     lambda(    4)=  0.0600   gamma=  103.50 GHz
     lambda(    5)=  0.0602   gamma=  103.90 GHz
     lambda(    6)=  0.0603   gamma=  104.16 GHz
     lambda(    7)=  0.4667   gamma=  823.77 GHz
     lambda(    8)=  0.4473   gamma=  789.56 GHz
     lambda(    9)=  0.4573   gamma=  807.29 GHz
     lambda(   10)=  0.0008   gamma=    3.05 GHz
     lambda(   11)=  0.0008   gamma=    3.06 GHz
     lambda(   12)=  0.0008   gamma=    3.07 GHz
     lambda(   13)=  0.0042   gamma=   19.14 GHz
     lambda(   14)=  0.0041   gamma=   18.82 GHz
     lambda(   15)=  0.0042   gamma=   19.40 GHz
     lambda(   16)=  0.0265   gamma=  121.84 GHz
     lambda(   17)=  0.0266   gamma=  122.16 GHz
     lambda(   18)=  0.0266   gamma=  122.28 GHz
     lambda(   19)=  0.0564   gamma=  434.01 GHz
     lambda(   20)=  0.0632   gamma=  493.92 GHz
     lambda(   21)=  0.0618   gamma=  483.60 GHz
     Gaussian Broadening:   0.050 Ry, ngauss=   0
     DOS =  2.436152 states/spin/Ry/Unit Cell at Ef= 17.140123 eV
     lambda(    1)=  0.0547   gamma=    9.94 GHz
     lambda(    2)=  0.0548   gamma=    9.95 GHz
     lambda(    3)=  0.0549   gamma=    9.96 GHz
     lambda(    4)=  0.0602   gamma=  104.83 GHz
     lambda(    5)=  0.0605   gamma=  105.21 GHz
     lambda(    6)=  0.0606   gamma=  105.44 GHz
     lambda(    7)=  0.4646   gamma=  826.60 GHz
     lambda(    8)=  0.4466   gamma=  794.55 GHz
     lambda(    9)=  0.4560   gamma=  811.37 GHz
     lambda(   10)=  0.0008   gamma=    3.22 GHz
     lambda(   11)=  0.0008   gamma=    3.23 GHz
     lambda(   12)=  0.0008   gamma=    3.23 GHz
     lambda(   13)=  0.0042   gamma=   19.36 GHz
     lambda(   14)=  0.0041   gamma=   19.06 GHz
     lambda(   15)=  0.0043   gamma=   19.60 GHz
     lambda(   16)=  0.0263   gamma=  121.83 GHz
     lambda(   17)=  0.0264   gamma=  122.14 GHz
     lambda(   18)=  0.0264   gamma=  122.26 GHz
     lambda(   19)=  0.0568   gamma=  441.31 GHz
     lambda(   20)=  0.0612   gamma=  482.64 GHz
     lambda(   21)=  0.0600   gamma=  473.09 GHz
 
 
     Number of q in the star =    1
     List of q in the star:
          1  -0.866025400  -0.866025400  -0.866025400
 
     init_run     :      0.07s CPU      0.14s WALL (       1 calls)
     electrons    :      1.94s CPU      2.19s WALL (       1 calls)

     Called by init_run:
     wfcinit      :      0.00s CPU      0.04s WALL (       1 calls)
     potinit      :      0.01s CPU      0.03s WALL (       1 calls)
     hinit0       :      0.04s CPU      0.05s WALL (       1 calls)

     Called by electrons:
     c_bands      :      1.94s CPU      2.19s WALL (       1 calls)
     v_of_rho     :      0.01s CPU      0.06s WALL (       2 calls)
     newd         :      0.00s CPU      0.06s WALL (       2 calls)

     Called by c_bands:
     init_us_2    :      0.07s CPU      0.08s WALL (    2553 calls)
     cegterg      :      1.09s CPU      1.18s WALL (      76 calls)

     Called by *egterg:
     cdiaghg      :      0.38s CPU      0.46s WALL (    1133 calls)
     h_psi        :     40.55s CPU     47.12s WALL (   58248 calls)
     s_psi        :      1.21s CPU      1.36s WALL (  119764 calls)
     g_psi        :      0.00s CPU      0.00s WALL (    1059 calls)

     Called by h_psi:
     h_psi:calbec :      1.02s CPU      1.14s WALL (   58248 calls)
     vloc_psi     :     38.45s CPU     44.77s WALL (   58248 calls)
     add_vuspsi   :      0.59s CPU      0.66s WALL (   58248 calls)

     General routines
     calbec       :      7.13s CPU      7.55s WALL (  128644 calls)
     fft          :      0.42s CPU      0.76s WALL (    2647 calls)
     ffts         :      0.23s CPU      0.27s WALL (    1231 calls)
     fftw         :     86.40s CPU    103.30s WALL (  832044 calls)
     interpolate  :      0.23s CPU      0.27s WALL (     265 calls)
     davcio       :      0.81s CPU     53.37s WALL (   19236 calls)
 
     Parallel routines
 
     PHONON       :   3m54.64s CPU   5m30.60s WALL

     INITIALIZATION: 
     phq_setup    :      0.01s CPU      0.03s WALL (       1 calls)
     phq_init     :      2.58s CPU      3.19s WALL (       1 calls)
 
     phq_init     :      2.58s CPU      3.19s WALL (       1 calls)
     set_drhoc    :      0.05s CPU      0.05s WALL (       3 calls)
     init_vloc    :      0.00s CPU      0.01s WALL (       2 calls)
     init_us_1    :      0.07s CPU      0.11s WALL (       2 calls)
     newd         :      0.00s CPU      0.06s WALL (       2 calls)
     dvanqq       :      0.17s CPU      0.18s WALL (       1 calls)
     drho         :      1.24s CPU      1.76s WALL (       1 calls)
 
     DYNAMICAL MATRIX:
     dynmat0      :      0.47s CPU      0.52s WALL (       1 calls)
     phqscf       :    196.99s CPU    288.03s WALL (       1 calls)
     dynmatrix    :      0.13s CPU      0.22s WALL (       1 calls)
 
     phqscf       :    196.99s CPU    288.03s WALL (       1 calls)
     solve_linter :    192.93s CPU    280.55s WALL (       8 calls)
     drhodv       :      4.04s CPU      6.15s WALL (       8 calls)
 
     dynmat0      :      0.47s CPU      0.52s WALL (       1 calls)
     dynmat_us    :      0.43s CPU      0.45s WALL (       1 calls)
     d2ionq       :      0.01s CPU      0.01s WALL (       1 calls)
     dynmatcc     :      0.04s CPU      0.04s WALL (       1 calls)
 
     dynmat_us    :      0.43s CPU      0.45s WALL (       1 calls)
     addusdynmat  :      0.00s CPU      0.00s WALL (       1 calls)
 
     phqscf       :    196.99s CPU    288.03s WALL (       1 calls)
     solve_linter :    192.93s CPU    280.55s WALL (       8 calls)
 
     solve_linter :    192.93s CPU    280.55s WALL (       8 calls)
     dvqpsi_us    :      1.17s CPU      1.25s WALL (     777 calls)
     ortho        :      6.06s CPU      6.27s WALL (    4477 calls)
     cgsolve      :     44.26s CPU     51.29s WALL (    4477 calls)
     incdrhoscf   :     25.64s CPU     31.26s WALL (    4477 calls)
     addusddens   :      0.91s CPU      2.05s WALL (      55 calls)
     vpsifft      :     24.49s CPU     29.72s WALL (    4477 calls)
     dv_of_drho   :      0.28s CPU      0.33s WALL (     121 calls)
     mix_pot      :      6.98s CPU     21.16s WALL (      47 calls)
     psymdvscf    :     20.51s CPU     20.87s WALL (      47 calls)
     newdq        :      1.67s CPU      1.69s WALL (      47 calls)
     adddvscf     :      0.15s CPU      0.17s WALL (    4477 calls)
     drhodvus     :      1.90s CPU      4.21s WALL (       8 calls)
 
     dvqpsi_us    :      1.17s CPU      1.25s WALL (     777 calls)
     dvqpsi_us_on :      0.46s CPU      0.49s WALL (     777 calls)
 
     cgsolve      :     44.26s CPU     51.29s WALL (    4477 calls)
     ch_psi       :     43.51s CPU     50.45s WALL (   57039 calls)
 
     ch_psi       :     43.51s CPU     50.45s WALL (   57039 calls)
     h_psi        :     40.55s CPU     47.12s WALL (   58248 calls)
     last         :      2.41s CPU      2.69s WALL (   57039 calls)
 
     h_psi        :     40.55s CPU     47.12s WALL (   58248 calls)
     add_vuspsi   :      0.59s CPU      0.66s WALL (   58248 calls)
 
     incdrhoscf   :     25.64s CPU     31.26s WALL (    4477 calls)
     addusdbec    :      0.16s CPU      0.17s WALL (    5254 calls)
 
     drhodvus     :      1.90s CPU      4.21s WALL (       8 calls)
 
      Electron-phonon coupling
     elphel       :      8.15s CPU     13.23s WALL (       8 calls)
     elphsum      :     32.19s CPU     32.58s WALL (       1 calls)
 
      General routines
     calbec       :      7.13s CPU      7.55s WALL (  128644 calls)
     fft          :      0.42s CPU      0.76s WALL (    2647 calls)
     ffts         :      0.23s CPU      0.27s WALL (    1231 calls)
     fftw         :     86.40s CPU    103.30s WALL (  832044 calls)
     davcio       :      0.81s CPU     53.37s WALL (   19236 calls)
     write_rec    :      0.05s CPU      9.60s WALL (      55 calls)
 
 
     PHONON       :   3m54.64s CPU   5m30.60s WALL

 
   This run was terminated on:  12:13:28  22Jul2022            

=------------------------------------------------------------------------------=
   JOB DONE.
=------------------------------------------------------------------------------=
