
     Program PHONON v.6.8 starts on 21Jul2022 at 22:28:24 

     This program is part of the open-source Quantum ESPRESSO suite
     for quantum simulation of materials; please cite
         "P. Giannozzi et al., J. Phys.:Condens. Matter 21 395502 (2009);
         "P. Giannozzi et al., J. Phys.:Condens. Matter 29 465901 (2017);
         "P. Giannozzi et al., J. Chem. Phys. 152 154105 (2020);
          URL http://www.quantum-espresso.org", 
     in publications or presentations arising from this work. More details at
     http://www.quantum-espresso.org/quote

     Parallel version (MPI), running on    48 processors

     MPI processes distributed on     1 nodes
     K-points division:     npool     =       4
     R & G space division:  proc/nbgrp/npool/nimage =      12
     188793 MiB available memory on the printing compute node when the environment starts
 
     Waiting for input...
     Reading input from standard input

     Reading xml data from directory:

     ./tmp/Ca1H6.save/

     IMPORTANT: XC functional enforced from input :
     Exchange-correlation= PBE
                           (   1   4   3   4   0   0   0)
     Any further DFT definition will be discarded
     Please, verify this is what you really want

 
     Parallelization info
     --------------------
     sticks:   dense  smooth     PW     G-vecs:    dense   smooth      PW
     Min         139      46     17                 3602      698     155
     Max         140      47     18                 3604      701     157
     Sum        1669     557    205                43227     8391    1865
 
     Using Slab Decomposition
 
     Reading collected, re-writing distributed wavefunctions

     Saving dvscf to file. Distribute only q points, not irreducible represetations.

     Calculation of q =    0.1082532   0.1082532   0.0000000

     Subspace diagonalization in iterative solution of the eigenvalue problem:
     a serial algorithm will be used

 
     Parallelization info
     --------------------
     sticks:   dense  smooth     PW     G-vecs:    dense   smooth      PW
     Min         139      46     17                 3602      698     155
     Max         140      47     18                 3604      701     157
     Sum        1669     557    205                43227     8391    1865
 
     Using Slab Decomposition
 

     Title: 
     Electron-phonon coefficients for Ca1H6                                     


     bravais-lattice index     =            0
     lattice parameter (alat)  =       5.5613  a.u.
     unit-cell volume          =     132.4087 (a.u.)^3
     number of atoms/cell      =            7
     number of atomic types    =            2
     number of electrons       =        16.00
     number of Kohn-Sham states=           12
     kinetic-energy cutoff     =      60.0000  Ry
     charge density cutoff     =     720.0000  Ry
     Exchange-correlation= PBE
                           (   1   4   3   4   0   0   0)

     celldm(1)=   5.561340  celldm(2)=   0.000000  celldm(3)=   0.000000
     celldm(4)=   0.000000  celldm(5)=   0.000000  celldm(6)=   0.000000

     crystal axes: (cart. coord. in units of alat)
               a(1) = (  -0.577350   0.577350   0.577350 )  
               a(2) = (   0.577350  -0.577350   0.577350 )  
               a(3) = (   0.577350   0.577350  -0.577350 )  

     reciprocal axes: (cart. coord. in units 2 pi/alat)
               b(1) = ( -0.000000  0.866025  0.866025 )  
               b(2) = (  0.866025 -0.000000  0.866025 )  
               b(3) = (  0.866025  0.866025  0.000000 )  


     PseudoPot. # 1 for Ca read from file:
     /work/home/mayuan/code/my_script/scripts_tests/out2/200.0/pp/ca_pbe_v1.uspp.F.UPF
     MD5 check sum: 403a4c14b9e4d4dfdc3024c9a3812218
     Pseudo is Ultrasoft + core correction, Zval = 10.0
     Generated by new atomic code, or converted to UPF format
     Using radial grid of  845 points,  6 beta functions with: 
                l(1) =   0
                l(2) =   0
                l(3) =   1
                l(4) =   1
                l(5) =   2
                l(6) =   2
     Q(r) pseudized with  8 coefficients,  rinner =    1.500   1.500   1.500
                                                       1.500   1.500

     PseudoPot. # 2 for H  read from file:
     /work/home/mayuan/code/my_script/scripts_tests/out2/200.0/pp/h_pbe_v1.uspp.F.UPF
     MD5 check sum: 3408e3ff4ec8b0a4e358431e7e038a48
     Pseudo is Ultrasoft, Zval =  1.0
     Generated by new atomic code, or converted to UPF format
     Using radial grid of  615 points,  2 beta functions with: 
                l(1) =   0
                l(2) =   0
     Q(r) pseudized with  8 coefficients,  rinner =    0.700

     atomic species   valence    mass     pseudopotential
        Ca            10.00    40.07800     Ca( 1.00)
        H              1.00     1.00794     H ( 1.00)

     48 Sym. Ops., with inversion, found



   Cartesian axes

     site n.     atom                  positions (alat units)
         1           Ca  tau(   1) = (   0.0000000   0.0000000   0.0000000  )
         2           H   tau(   2) = (   0.2886751   0.0000000   0.5773503  )
         3           H   tau(   3) = (   0.2886751   0.5773503   0.0000000  )
         4           H   tau(   4) = (   0.5773503   0.2886751   0.0000000  )
         5           H   tau(   5) = (   0.0000000   0.2886751   0.5773503  )
         6           H   tau(   6) = (   0.0000000   0.5773503   0.2886751  )
         7           H   tau(   7) = (   0.5773503   0.0000000   0.2886751  )

     number of k points=  2320  Methfessel-Paxton smearing, width (Ry)=  0.0200

     Number of k-points >= 100: set verbosity='high' to print them.

     Dense  grid:    43227 G-vectors     FFT dimensions: (  48,  48,  48)

     Smooth grid:     8391 G-vectors     FFT dimensions: (  27,  27,  27)

     Estimated max dynamical RAM per process >       8.29 MB

     Estimated total dynamical RAM >     397.79 MB

     The potential is recalculated from file :
     ./tmp/_ph0/Ca1H6.save/charge-density

     Starting wfcs are   16 atomic wfcs

     Band Structure Calculation
     Davidson diagonalization with overlap

     ethr =  6.25E-11,  avg # of iterations = 14.9

     total cpu time spent up to now is       20.1 secs

     End of band structure calculation

     Number of k-points >= 100: set verbosity='high' to print the bands.

     the Fermi energy is    17.0980 ev

     Writing output data file ./tmp/_ph0/Ca1H6.save/

     Electron-phonon coefficients for Ca1H6                                     

     bravais-lattice index     =            0
     lattice parameter (alat)  =       5.5613  a.u.
     unit-cell volume          =     132.4087 (a.u.)^3
     number of atoms/cell      =            7
     number of atomic types    =            2
     kinetic-energy cut-off    =      60.0000  Ry
     charge density cut-off    =     720.0000  Ry
     convergence threshold     =      1.0E-16
     beta                      =       0.7000
     number of iterations used =            4
     Exchange-correlation= PBE
                           (   1   4   3   4   0   0   0)


     celldm(1)=    5.56134  celldm(2)=    0.00000  celldm(3)=    0.00000
     celldm(4)=    0.00000  celldm(5)=    0.00000  celldm(6)=    0.00000

     crystal axes: (cart. coord. in units of alat)
               a(1) = ( -0.5774  0.5774  0.5774 )  
               a(2) = (  0.5774 -0.5774  0.5774 )  
               a(3) = (  0.5774  0.5774 -0.5774 )  

     reciprocal axes: (cart. coord. in units 2 pi/alat)
               b(1) = ( -0.0000  0.8660  0.8660 )  
               b(2) = (  0.8660 -0.0000  0.8660 )  
               b(3) = (  0.8660  0.8660  0.0000 )  


     Atoms inside the unit cell: 

     Cartesian axes

     site n.  atom      mass           positions (alat units)
        1     Ca  40.0780   tau(    1) = (    0.00000    0.00000    0.00000  )
        2     H    1.0079   tau(    2) = (    0.28868    0.00000    0.57735  )
        3     H    1.0079   tau(    3) = (    0.28868    0.57735    0.00000  )
        4     H    1.0079   tau(    4) = (    0.57735    0.28868    0.00000  )
        5     H    1.0079   tau(    5) = (    0.00000    0.28868    0.57735  )
        6     H    1.0079   tau(    6) = (    0.00000    0.57735    0.28868  )
        7     H    1.0079   tau(    7) = (    0.57735    0.00000    0.28868  )

     Computing dynamical matrix for 
                    q = (   0.1082532   0.1082532   0.0000000 )
 
      4 Sym.Ops. (no q -> -q+G )


     G cutoff =  564.0682  (   3604 G-vectors)     FFT grid: ( 48, 48, 48)
     G cutoff =  188.0227  (    699 G-vectors)  smooth grid: ( 27, 27, 27)

     number of k points=  2320  Methfessel-Paxton smearing, width (Ry)=  0.0200

     PseudoPot. # 1 for Ca read from file:
     /work/home/mayuan/code/my_script/scripts_tests/out2/200.0/pp/ca_pbe_v1.uspp.F.UPF
     MD5 check sum: 403a4c14b9e4d4dfdc3024c9a3812218
     Pseudo is Ultrasoft + core correction, Zval = 10.0
     Generated by new atomic code, or converted to UPF format
     Using radial grid of  845 points,  6 beta functions with: 
                l(1) =   0
                l(2) =   0
                l(3) =   1
                l(4) =   1
                l(5) =   2
                l(6) =   2
     Q(r) pseudized with  8 coefficients,  rinner =    1.500   1.500   1.500
                                                       1.500   1.500

     PseudoPot. # 2 for H  read from file:
     /work/home/mayuan/code/my_script/scripts_tests/out2/200.0/pp/h_pbe_v1.uspp.F.UPF
     MD5 check sum: 3408e3ff4ec8b0a4e358431e7e038a48
     Pseudo is Ultrasoft, Zval =  1.0
     Generated by new atomic code, or converted to UPF format
     Using radial grid of  615 points,  2 beta functions with: 
                l(1) =   0
                l(2) =   0
     Q(r) pseudized with  8 coefficients,  rinner =    0.700

     Mode symmetry, C_2v (mm2)  point group:


     Atomic displacements:
     There are   21 irreducible representations

     Representation     1      1 modes -  To be done

     Representation     2      1 modes -  To be done

     Representation     3      1 modes -  To be done

     Representation     4      1 modes -  To be done

     Representation     5      1 modes -  To be done

     Representation     6      1 modes -  To be done

     Representation     7      1 modes -  To be done

     Representation     8      1 modes -  To be done

     Representation     9      1 modes -  To be done

     Representation    10      1 modes -  To be done

     Representation    11      1 modes -  To be done

     Representation    12      1 modes -  To be done

     Representation    13      1 modes -  To be done

     Representation    14      1 modes -  To be done

     Representation    15      1 modes -  To be done

     Representation    16      1 modes -  To be done

     Representation    17      1 modes -  To be done

     Representation    18      1 modes -  To be done

     Representation    19      1 modes -  To be done

     Representation    20      1 modes -  To be done

     Representation    21      1 modes -  To be done



     Alpha used in Ewald sum =   2.8000
     PHONON       :     33.28s CPU     40.62s WALL



     Representation #   1 mode #   1

     Self-consistent Calculation

      iter #   1 total cpu time :    50.1 secs   av.it.:   7.2
      thresh= 1.000E-02 alpha_mix =  0.700 |ddv_scf|^2 =  2.781E-01

      iter #   2 total cpu time :    64.3 secs   av.it.:   9.5
      thresh= 1.000E-02 alpha_mix =  0.700 |ddv_scf|^2 =  1.314E+02

      iter #   3 total cpu time :    80.6 secs   av.it.:   9.4
      thresh= 1.000E-02 alpha_mix =  0.700 |ddv_scf|^2 =  4.169E-04

      iter #   4 total cpu time :    96.2 secs   av.it.:   6.8
      thresh= 2.042E-03 alpha_mix =  0.700 |ddv_scf|^2 =  7.541E-06

      iter #   5 total cpu time :   112.1 secs   av.it.:   7.5
      thresh= 2.746E-04 alpha_mix =  0.700 |ddv_scf|^2 =  1.001E-09

      iter #   6 total cpu time :   132.6 secs   av.it.:   9.5
      thresh= 3.164E-06 alpha_mix =  0.700 |ddv_scf|^2 =  2.163E-09

      iter #   7 total cpu time :   152.6 secs   av.it.:   7.7
      thresh= 4.650E-06 alpha_mix =  0.700 |ddv_scf|^2 =  3.667E-10

      iter #   8 total cpu time :   173.4 secs   av.it.:   5.2
      thresh= 1.915E-06 alpha_mix =  0.700 |ddv_scf|^2 =  1.952E-10

      iter #   9 total cpu time :   194.9 secs   av.it.:   7.0
      thresh= 1.397E-06 alpha_mix =  0.700 |ddv_scf|^2 =  1.564E-13

      iter #  10 total cpu time :   212.7 secs   av.it.:   8.3
      thresh= 3.955E-08 alpha_mix =  0.700 |ddv_scf|^2 =  5.442E-15

      iter #  11 total cpu time :   233.0 secs   av.it.:   8.9
      thresh= 7.377E-09 alpha_mix =  0.700 |ddv_scf|^2 =  8.515E-16

      iter #  12 total cpu time :   253.9 secs   av.it.:   8.2
      thresh= 2.918E-09 alpha_mix =  0.700 |ddv_scf|^2 =  5.810E-18

     End of self-consistent calculation

     Convergence has been achieved 


     Representation #   2 mode #   2

     Self-consistent Calculation

      iter #   1 total cpu time :   274.8 secs   av.it.:   4.4
      thresh= 1.000E-02 alpha_mix =  0.700 |ddv_scf|^2 =  2.433E-03

      iter #   2 total cpu time :   289.2 secs   av.it.:   8.0
      thresh= 4.932E-03 alpha_mix =  0.700 |ddv_scf|^2 =  1.148E+00

      iter #   3 total cpu time :   303.5 secs   av.it.:   7.1
      thresh= 1.000E-02 alpha_mix =  0.700 |ddv_scf|^2 =  6.001E-06

      iter #   4 total cpu time :   318.8 secs   av.it.:   6.5
      thresh= 2.450E-04 alpha_mix =  0.700 |ddv_scf|^2 =  3.183E-09

      iter #   5 total cpu time :   334.5 secs   av.it.:   8.9
      thresh= 5.641E-06 alpha_mix =  0.700 |ddv_scf|^2 =  4.522E-09

      iter #   6 total cpu time :   350.3 secs   av.it.:   5.1
      thresh= 6.725E-06 alpha_mix =  0.700 |ddv_scf|^2 =  3.635E-09

      iter #   7 total cpu time :   367.4 secs   av.it.:   6.4
      thresh= 6.029E-06 alpha_mix =  0.700 |ddv_scf|^2 =  1.296E-11

      iter #   8 total cpu time :   386.8 secs   av.it.:   8.0
      thresh= 3.600E-07 alpha_mix =  0.700 |ddv_scf|^2 =  1.895E-13

      iter #   9 total cpu time :   406.8 secs   av.it.:   9.3
      thresh= 4.353E-08 alpha_mix =  0.700 |ddv_scf|^2 =  1.653E-13

      iter #  10 total cpu time :   430.3 secs   av.it.:   7.8
      thresh= 4.066E-08 alpha_mix =  0.700 |ddv_scf|^2 =  3.510E-14

      iter #  11 total cpu time :   454.2 secs   av.it.:   7.8
      thresh= 1.873E-08 alpha_mix =  0.700 |ddv_scf|^2 =  8.265E-16

      iter #  12 total cpu time :   473.6 secs   av.it.:   8.3
      thresh= 2.875E-09 alpha_mix =  0.700 |ddv_scf|^2 =  2.509E-16

      iter #  13 total cpu time :   489.6 secs   av.it.:   7.8
      thresh= 1.584E-09 alpha_mix =  0.700 |ddv_scf|^2 =  1.545E-17

     End of self-consistent calculation

     Convergence has been achieved 


     Representation #   3 mode #   3

     Self-consistent Calculation

      iter #   1 total cpu time :   504.0 secs   av.it.:   4.4
      thresh= 1.000E-02 alpha_mix =  0.700 |ddv_scf|^2 =  3.640E-03

      iter #   2 total cpu time :   517.9 secs   av.it.:   8.0
      thresh= 6.033E-03 alpha_mix =  0.700 |ddv_scf|^2 =  1.718E+00

      iter #   3 total cpu time :   533.1 secs   av.it.:   7.3
      thresh= 1.000E-02 alpha_mix =  0.700 |ddv_scf|^2 =  8.018E-06

      iter #   4 total cpu time :   548.8 secs   av.it.:   6.3
      thresh= 2.832E-04 alpha_mix =  0.700 |ddv_scf|^2 =  7.002E-10

      iter #   5 total cpu time :   566.6 secs   av.it.:   9.6
      thresh= 2.646E-06 alpha_mix =  0.700 |ddv_scf|^2 =  2.903E-09

      iter #   6 total cpu time :   584.3 secs   av.it.:   5.5
      thresh= 5.388E-06 alpha_mix =  0.700 |ddv_scf|^2 =  5.639E-09

      iter #   7 total cpu time :   602.8 secs   av.it.:   6.2
      thresh= 7.509E-06 alpha_mix =  0.700 |ddv_scf|^2 =  2.482E-11

      iter #   8 total cpu time :   621.9 secs   av.it.:   7.9
      thresh= 4.982E-07 alpha_mix =  0.700 |ddv_scf|^2 =  7.432E-13

      iter #   9 total cpu time :   641.9 secs   av.it.:   8.5
      thresh= 8.621E-08 alpha_mix =  0.700 |ddv_scf|^2 =  6.740E-13

      iter #  10 total cpu time :   661.9 secs   av.it.:   7.1
      thresh= 8.210E-08 alpha_mix =  0.700 |ddv_scf|^2 =  4.361E-13

      iter #  11 total cpu time :   679.5 secs   av.it.:   6.9
      thresh= 6.604E-08 alpha_mix =  0.700 |ddv_scf|^2 =  1.386E-15

      iter #  12 total cpu time :   698.4 secs   av.it.:   8.5
      thresh= 3.724E-09 alpha_mix =  0.700 |ddv_scf|^2 =  4.659E-17

     End of self-consistent calculation

     Convergence has been achieved 


     Representation #   4 mode #   4

     Self-consistent Calculation

      iter #   1 total cpu time :   714.9 secs   av.it.:   4.3
      thresh= 1.000E-02 alpha_mix =  0.700 |ddv_scf|^2 =  5.506E-03

      iter #   2 total cpu time :   731.0 secs   av.it.:   8.0
      thresh= 7.420E-03 alpha_mix =  0.700 |ddv_scf|^2 =  2.597E+00

      iter #   3 total cpu time :   747.8 secs   av.it.:   7.6
      thresh= 1.000E-02 alpha_mix =  0.700 |ddv_scf|^2 =  1.553E-05

      iter #   4 total cpu time :   766.9 secs   av.it.:   5.9
      thresh= 3.940E-04 alpha_mix =  0.700 |ddv_scf|^2 =  4.150E-08

      iter #   5 total cpu time :   781.4 secs   av.it.:   7.8
      thresh= 2.037E-05 alpha_mix =  0.700 |ddv_scf|^2 =  3.320E-10

      iter #   6 total cpu time :   796.7 secs   av.it.:   7.9
      thresh= 1.822E-06 alpha_mix =  0.700 |ddv_scf|^2 =  4.842E-10

      iter #   7 total cpu time :   814.0 secs   av.it.:   4.9
      thresh= 2.200E-06 alpha_mix =  0.700 |ddv_scf|^2 =  1.713E-10

      iter #   8 total cpu time :   830.6 secs   av.it.:   6.8
      thresh= 1.309E-06 alpha_mix =  0.700 |ddv_scf|^2 =  3.004E-13

      iter #   9 total cpu time :   849.7 secs   av.it.:   9.1
      thresh= 5.481E-08 alpha_mix =  0.700 |ddv_scf|^2 =  3.075E-14

      iter #  10 total cpu time :   871.7 secs   av.it.:   8.0
      thresh= 1.753E-08 alpha_mix =  0.700 |ddv_scf|^2 =  1.229E-15

      iter #  11 total cpu time :   890.9 secs   av.it.:   9.0
      thresh= 3.505E-09 alpha_mix =  0.700 |ddv_scf|^2 =  1.207E-15

      iter #  12 total cpu time :   912.3 secs   av.it.:   7.2
      thresh= 3.474E-09 alpha_mix =  0.700 |ddv_scf|^2 =  1.911E-16

      iter #  13 total cpu time :   930.5 secs   av.it.:   6.9
      thresh= 1.382E-09 alpha_mix =  0.700 |ddv_scf|^2 =  3.263E-15

      iter #  14 total cpu time :   948.4 secs   av.it.:   5.1
      thresh= 5.712E-09 alpha_mix =  0.700 |ddv_scf|^2 =  4.392E-18

     End of self-consistent calculation

     Convergence has been achieved 


     Representation #   5 mode #   5

     Self-consistent Calculation

      iter #   1 total cpu time :   965.5 secs   av.it.:   4.3
      thresh= 1.000E-02 alpha_mix =  0.700 |ddv_scf|^2 =  1.974E-03

      iter #   2 total cpu time :   980.2 secs   av.it.:   8.0
      thresh= 4.443E-03 alpha_mix =  0.700 |ddv_scf|^2 =  9.313E-01

      iter #   3 total cpu time :   996.4 secs   av.it.:   7.0
      thresh= 1.000E-02 alpha_mix =  0.700 |ddv_scf|^2 =  5.012E-06

      iter #   4 total cpu time :  1013.6 secs   av.it.:   6.5
      thresh= 2.239E-04 alpha_mix =  0.700 |ddv_scf|^2 =  7.126E-09

      iter #   5 total cpu time :  1029.3 secs   av.it.:   8.4
      thresh= 8.442E-06 alpha_mix =  0.700 |ddv_scf|^2 =  2.589E-09

      iter #   6 total cpu time :  1044.1 secs   av.it.:   5.6
      thresh= 5.088E-06 alpha_mix =  0.700 |ddv_scf|^2 =  4.048E-09

      iter #   7 total cpu time :  1060.6 secs   av.it.:   6.5
      thresh= 6.362E-06 alpha_mix =  0.700 |ddv_scf|^2 =  2.589E-11

      iter #   8 total cpu time :  1077.0 secs   av.it.:   7.8
      thresh= 5.089E-07 alpha_mix =  0.700 |ddv_scf|^2 =  7.651E-13

      iter #   9 total cpu time :  1095.6 secs   av.it.:   8.5
      thresh= 8.747E-08 alpha_mix =  0.700 |ddv_scf|^2 =  5.400E-15

      iter #  10 total cpu time :  1114.2 secs   av.it.:   9.0
      thresh= 7.349E-09 alpha_mix =  0.700 |ddv_scf|^2 =  2.546E-16

      iter #  11 total cpu time :  1131.7 secs   av.it.:   9.5
      thresh= 1.596E-09 alpha_mix =  0.700 |ddv_scf|^2 =  1.086E-16

      iter #  12 total cpu time :  1148.7 secs   av.it.:   8.2
      thresh= 1.042E-09 alpha_mix =  0.700 |ddv_scf|^2 =  2.053E-15

      iter #  13 total cpu time :  1166.2 secs   av.it.:   6.2
      thresh= 4.531E-09 alpha_mix =  0.700 |ddv_scf|^2 =  1.781E-16

      iter #  14 total cpu time :  1182.9 secs   av.it.:   5.8
      thresh= 1.334E-09 alpha_mix =  0.700 |ddv_scf|^2 =  9.000E-18

     End of self-consistent calculation

     Convergence has been achieved 


     Representation #   6 mode #   6

     Self-consistent Calculation

      iter #   1 total cpu time :  1199.3 secs   av.it.:   4.4
      thresh= 1.000E-02 alpha_mix =  0.700 |ddv_scf|^2 =  3.181E-03

      iter #   2 total cpu time :  1214.9 secs   av.it.:   8.0
      thresh= 5.640E-03 alpha_mix =  0.700 |ddv_scf|^2 =  1.501E+00

      iter #   3 total cpu time :  1229.5 secs   av.it.:   7.3
      thresh= 1.000E-02 alpha_mix =  0.700 |ddv_scf|^2 =  7.024E-06

      iter #   4 total cpu time :  1244.9 secs   av.it.:   6.2
      thresh= 2.650E-04 alpha_mix =  0.700 |ddv_scf|^2 =  5.336E-10

      iter #   5 total cpu time :  1261.7 secs   av.it.:   9.6
      thresh= 2.310E-06 alpha_mix =  0.700 |ddv_scf|^2 =  3.077E-09

      iter #   6 total cpu time :  1275.7 secs   av.it.:   5.1
      thresh= 5.547E-06 alpha_mix =  0.700 |ddv_scf|^2 =  1.875E-09

      iter #   7 total cpu time :  1290.9 secs   av.it.:   6.7
      thresh= 4.330E-06 alpha_mix =  0.700 |ddv_scf|^2 =  1.592E-11

      iter #   8 total cpu time :  1308.3 secs   av.it.:   8.1
      thresh= 3.990E-07 alpha_mix =  0.700 |ddv_scf|^2 =  2.841E-12

      iter #   9 total cpu time :  1330.3 secs   av.it.:   7.8
      thresh= 1.685E-07 alpha_mix =  0.700 |ddv_scf|^2 =  2.721E-14

      iter #  10 total cpu time :  1350.0 secs   av.it.:   8.3
      thresh= 1.650E-08 alpha_mix =  0.700 |ddv_scf|^2 =  1.269E-14

      iter #  11 total cpu time :  1369.0 secs   av.it.:   7.7
      thresh= 1.127E-08 alpha_mix =  0.700 |ddv_scf|^2 =  1.428E-16

      iter #  12 total cpu time :  1386.8 secs   av.it.:   8.5
      thresh= 1.195E-09 alpha_mix =  0.700 |ddv_scf|^2 =  3.692E-17

     End of self-consistent calculation

     Convergence has been achieved 


     Representation #   7 mode #   7

     Self-consistent Calculation

      iter #   1 total cpu time :  1400.7 secs   av.it.:   3.7
      thresh= 1.000E-02 alpha_mix =  0.700 |ddv_scf|^2 =  6.631E-08

      iter #   2 total cpu time :  1415.0 secs   av.it.:   9.0
      thresh= 2.575E-05 alpha_mix =  0.700 |ddv_scf|^2 =  1.723E-09

      iter #   3 total cpu time :  1428.5 secs   av.it.:   9.0
      thresh= 4.151E-06 alpha_mix =  0.700 |ddv_scf|^2 =  7.626E-11

      iter #   4 total cpu time :  1446.1 secs   av.it.:   8.7
      thresh= 8.733E-07 alpha_mix =  0.700 |ddv_scf|^2 =  2.167E-12

      iter #   5 total cpu time :  1465.7 secs   av.it.:   8.4
      thresh= 1.472E-07 alpha_mix =  0.700 |ddv_scf|^2 =  6.206E-15

      iter #   6 total cpu time :  1485.0 secs   av.it.:   9.3
      thresh= 7.878E-09 alpha_mix =  0.700 |ddv_scf|^2 =  5.564E-17

     End of self-consistent calculation

     Convergence has been achieved 


     Representation #   8 mode #   8

     Self-consistent Calculation

      iter #   1 total cpu time :  1500.7 secs   av.it.:   3.7
      thresh= 1.000E-02 alpha_mix =  0.700 |ddv_scf|^2 =  6.631E-08

      iter #   2 total cpu time :  1514.9 secs   av.it.:   9.0
      thresh= 2.575E-05 alpha_mix =  0.700 |ddv_scf|^2 =  1.723E-09

      iter #   3 total cpu time :  1530.3 secs   av.it.:   9.0
      thresh= 4.151E-06 alpha_mix =  0.700 |ddv_scf|^2 =  7.626E-11

      iter #   4 total cpu time :  1550.9 secs   av.it.:   8.7
      thresh= 8.733E-07 alpha_mix =  0.700 |ddv_scf|^2 =  2.167E-12

      iter #   5 total cpu time :  1567.5 secs   av.it.:   8.4
      thresh= 1.472E-07 alpha_mix =  0.700 |ddv_scf|^2 =  6.206E-15

      iter #   6 total cpu time :  1584.2 secs   av.it.:   9.3
      thresh= 7.878E-09 alpha_mix =  0.700 |ddv_scf|^2 =  5.564E-17

     End of self-consistent calculation

     Convergence has been achieved 


     Representation #   9 mode #   9

     Self-consistent Calculation

      iter #   1 total cpu time :  1601.0 secs   av.it.:   3.7
      thresh= 1.000E-02 alpha_mix =  0.700 |ddv_scf|^2 =  5.297E-08

      iter #   2 total cpu time :  1615.8 secs   av.it.:   8.8
      thresh= 2.301E-05 alpha_mix =  0.700 |ddv_scf|^2 =  6.760E-10

      iter #   3 total cpu time :  1631.6 secs   av.it.:   8.8
      thresh= 2.600E-06 alpha_mix =  0.700 |ddv_scf|^2 =  4.470E-11

      iter #   4 total cpu time :  1649.0 secs   av.it.:   8.6
      thresh= 6.686E-07 alpha_mix =  0.700 |ddv_scf|^2 =  2.050E-12

      iter #   5 total cpu time :  1669.3 secs   av.it.:   8.5
      thresh= 1.432E-07 alpha_mix =  0.700 |ddv_scf|^2 =  9.213E-15

      iter #   6 total cpu time :  1688.8 secs   av.it.:   9.2
      thresh= 9.598E-09 alpha_mix =  0.700 |ddv_scf|^2 =  7.315E-17

     End of self-consistent calculation

     Convergence has been achieved 


     Representation #  10 mode #  10

     Self-consistent Calculation

      iter #   1 total cpu time :  1702.5 secs   av.it.:   3.4
      thresh= 1.000E-02 alpha_mix =  0.700 |ddv_scf|^2 =  3.315E-08

      iter #   2 total cpu time :  1717.0 secs   av.it.:   9.2
      thresh= 1.821E-05 alpha_mix =  0.700 |ddv_scf|^2 =  9.494E-10

      iter #   3 total cpu time :  1730.6 secs   av.it.:   9.5
      thresh= 3.081E-06 alpha_mix =  0.700 |ddv_scf|^2 =  7.820E-11

      iter #   4 total cpu time :  1743.9 secs   av.it.:   9.4
      thresh= 8.843E-07 alpha_mix =  0.700 |ddv_scf|^2 =  3.422E-12

      iter #   5 total cpu time :  1760.7 secs   av.it.:   9.4
      thresh= 1.850E-07 alpha_mix =  0.700 |ddv_scf|^2 =  4.350E-14

      iter #   6 total cpu time :  1779.1 secs   av.it.:   9.6
      thresh= 2.086E-08 alpha_mix =  0.700 |ddv_scf|^2 =  1.633E-15

      iter #   7 total cpu time :  1795.9 secs   av.it.:   9.5
      thresh= 4.041E-09 alpha_mix =  0.700 |ddv_scf|^2 =  4.976E-17

     End of self-consistent calculation

     Convergence has been achieved 


     Representation #  11 mode #  11

     Self-consistent Calculation

      iter #   1 total cpu time :  1810.6 secs   av.it.:   3.9
      thresh= 1.000E-02 alpha_mix =  0.700 |ddv_scf|^2 =  1.058E-07

      iter #   2 total cpu time :  1824.2 secs   av.it.:   9.3
      thresh= 3.252E-05 alpha_mix =  0.700 |ddv_scf|^2 =  3.230E-09

      iter #   3 total cpu time :  1837.6 secs   av.it.:   9.7
      thresh= 5.684E-06 alpha_mix =  0.700 |ddv_scf|^2 =  1.651E-10

      iter #   4 total cpu time :  1853.9 secs   av.it.:   9.5
      thresh= 1.285E-06 alpha_mix =  0.700 |ddv_scf|^2 =  7.539E-12

      iter #   5 total cpu time :  1869.8 secs   av.it.:   9.4
      thresh= 2.746E-07 alpha_mix =  0.700 |ddv_scf|^2 =  1.082E-13

      iter #   6 total cpu time :  1885.4 secs   av.it.:   9.5
      thresh= 3.289E-08 alpha_mix =  0.700 |ddv_scf|^2 =  4.283E-15

      iter #   7 total cpu time :  1905.2 secs   av.it.:   9.4
      thresh= 6.544E-09 alpha_mix =  0.700 |ddv_scf|^2 =  1.095E-16

      iter #   8 total cpu time :  1922.1 secs   av.it.:   9.3
      thresh= 1.046E-09 alpha_mix =  0.700 |ddv_scf|^2 =  3.169E-18

     End of self-consistent calculation

     Convergence has been achieved 


     Representation #  12 mode #  12

     Self-consistent Calculation

      iter #   1 total cpu time :  1938.9 secs   av.it.:   3.4
      thresh= 1.000E-02 alpha_mix =  0.700 |ddv_scf|^2 =  3.093E-08

      iter #   2 total cpu time :  1956.7 secs   av.it.:   9.4
      thresh= 1.759E-05 alpha_mix =  0.700 |ddv_scf|^2 =  9.807E-10

      iter #   3 total cpu time :  1971.2 secs   av.it.:   9.6
      thresh= 3.132E-06 alpha_mix =  0.700 |ddv_scf|^2 =  8.650E-11

      iter #   4 total cpu time :  1987.8 secs   av.it.:   9.4
      thresh= 9.301E-07 alpha_mix =  0.700 |ddv_scf|^2 =  3.381E-12

      iter #   5 total cpu time :  2006.2 secs   av.it.:   9.4
      thresh= 1.839E-07 alpha_mix =  0.700 |ddv_scf|^2 =  3.821E-14

      iter #   6 total cpu time :  2022.8 secs   av.it.:   9.6
      thresh= 1.955E-08 alpha_mix =  0.700 |ddv_scf|^2 =  1.700E-15

      iter #   7 total cpu time :  2039.7 secs   av.it.:   9.5
      thresh= 4.124E-09 alpha_mix =  0.700 |ddv_scf|^2 =  4.524E-17

     End of self-consistent calculation

     Convergence has been achieved 


     Representation #  13 mode #  13

     Self-consistent Calculation

      iter #   1 total cpu time :  2054.9 secs   av.it.:   3.5
      thresh= 1.000E-02 alpha_mix =  0.700 |ddv_scf|^2 =  3.681E-08

      iter #   2 total cpu time :  2067.6 secs   av.it.:   9.4
      thresh= 1.919E-05 alpha_mix =  0.700 |ddv_scf|^2 =  1.821E-09

      iter #   3 total cpu time :  2083.3 secs   av.it.:   9.6
      thresh= 4.267E-06 alpha_mix =  0.700 |ddv_scf|^2 =  1.228E-10

      iter #   4 total cpu time :  2099.3 secs   av.it.:   9.2
      thresh= 1.108E-06 alpha_mix =  0.700 |ddv_scf|^2 =  3.651E-12

      iter #   5 total cpu time :  2116.5 secs   av.it.:   9.3
      thresh= 1.911E-07 alpha_mix =  0.700 |ddv_scf|^2 =  8.381E-14

      iter #   6 total cpu time :  2136.3 secs   av.it.:   9.4
      thresh= 2.895E-08 alpha_mix =  0.700 |ddv_scf|^2 =  6.561E-16

      iter #   7 total cpu time :  2155.9 secs   av.it.:   9.2
      thresh= 2.561E-09 alpha_mix =  0.700 |ddv_scf|^2 =  4.343E-17

     End of self-consistent calculation

     Convergence has been achieved 


     Representation #  14 mode #  14

     Self-consistent Calculation

      iter #   1 total cpu time :  2170.3 secs   av.it.:   3.9
      thresh= 1.000E-02 alpha_mix =  0.700 |ddv_scf|^2 =  8.769E-08

      iter #   2 total cpu time :  2185.2 secs   av.it.:   9.4
      thresh= 2.961E-05 alpha_mix =  0.700 |ddv_scf|^2 =  2.664E-09

      iter #   3 total cpu time :  2201.5 secs   av.it.:   9.7
      thresh= 5.162E-06 alpha_mix =  0.700 |ddv_scf|^2 =  1.251E-10

      iter #   4 total cpu time :  2217.0 secs   av.it.:   9.5
      thresh= 1.119E-06 alpha_mix =  0.700 |ddv_scf|^2 =  5.810E-12

      iter #   5 total cpu time :  2235.8 secs   av.it.:   9.5
      thresh= 2.410E-07 alpha_mix =  0.700 |ddv_scf|^2 =  1.525E-13

      iter #   6 total cpu time :  2252.7 secs   av.it.:   9.5
      thresh= 3.905E-08 alpha_mix =  0.700 |ddv_scf|^2 =  3.076E-15

      iter #   7 total cpu time :  2269.3 secs   av.it.:   9.4
      thresh= 5.546E-09 alpha_mix =  0.700 |ddv_scf|^2 =  6.627E-17

     End of self-consistent calculation

     Convergence has been achieved 


     Representation #  15 mode #  15

     Self-consistent Calculation

      iter #   1 total cpu time :  2284.7 secs   av.it.:   6.3
      thresh= 1.000E-02 alpha_mix =  0.700 |ddv_scf|^2 =  8.473E-06

      iter #   2 total cpu time :  2298.9 secs   av.it.:   9.5
      thresh= 2.911E-04 alpha_mix =  0.700 |ddv_scf|^2 =  7.957E-07

      iter #   3 total cpu time :  2315.8 secs   av.it.:   9.4
      thresh= 8.920E-05 alpha_mix =  0.700 |ddv_scf|^2 =  3.527E-09

      iter #   4 total cpu time :  2334.1 secs   av.it.:   9.0
      thresh= 5.939E-06 alpha_mix =  0.700 |ddv_scf|^2 =  2.675E-11

      iter #   5 total cpu time :  2352.1 secs   av.it.:   9.3
      thresh= 5.172E-07 alpha_mix =  0.700 |ddv_scf|^2 =  1.208E-12

      iter #   6 total cpu time :  2369.1 secs   av.it.:   9.3
      thresh= 1.099E-07 alpha_mix =  0.700 |ddv_scf|^2 =  1.154E-14

      iter #   7 total cpu time :  2389.3 secs   av.it.:   8.8
      thresh= 1.074E-08 alpha_mix =  0.700 |ddv_scf|^2 =  6.461E-16

      iter #   8 total cpu time :  2412.2 secs   av.it.:   9.2
      thresh= 2.542E-09 alpha_mix =  0.700 |ddv_scf|^2 =  5.569E-18

     End of self-consistent calculation

     Convergence has been achieved 


     Representation #  16 mode #  16

     Self-consistent Calculation

      iter #   1 total cpu time :  2430.0 secs   av.it.:   3.5
      thresh= 1.000E-02 alpha_mix =  0.700 |ddv_scf|^2 =  3.898E-08

      iter #   2 total cpu time :  2445.3 secs   av.it.:   9.4
      thresh= 1.974E-05 alpha_mix =  0.700 |ddv_scf|^2 =  1.780E-09

      iter #   3 total cpu time :  2460.4 secs   av.it.:   9.6
      thresh= 4.219E-06 alpha_mix =  0.700 |ddv_scf|^2 =  1.207E-10

      iter #   4 total cpu time :  2476.3 secs   av.it.:   9.4
      thresh= 1.099E-06 alpha_mix =  0.700 |ddv_scf|^2 =  3.909E-12

      iter #   5 total cpu time :  2490.4 secs   av.it.:   9.4
      thresh= 1.977E-07 alpha_mix =  0.700 |ddv_scf|^2 =  8.414E-14

      iter #   6 total cpu time :  2507.6 secs   av.it.:   9.5
      thresh= 2.901E-08 alpha_mix =  0.700 |ddv_scf|^2 =  1.413E-15

      iter #   7 total cpu time :  2522.8 secs   av.it.:   9.4
      thresh= 3.759E-09 alpha_mix =  0.700 |ddv_scf|^2 =  4.749E-17

     End of self-consistent calculation

     Convergence has been achieved 


     Representation #  17 mode #  17

     Self-consistent Calculation

      iter #   1 total cpu time :  2536.9 secs   av.it.:   4.0
      thresh= 1.000E-02 alpha_mix =  0.700 |ddv_scf|^2 =  7.219E-08

      iter #   2 total cpu time :  2553.3 secs   av.it.:   9.4
      thresh= 2.687E-05 alpha_mix =  0.700 |ddv_scf|^2 =  2.700E-09

      iter #   3 total cpu time :  2569.0 secs   av.it.:   9.5
      thresh= 5.196E-06 alpha_mix =  0.700 |ddv_scf|^2 =  2.309E-10

      iter #   4 total cpu time :  2588.7 secs   av.it.:   9.4
      thresh= 1.520E-06 alpha_mix =  0.700 |ddv_scf|^2 =  4.582E-12

      iter #   5 total cpu time :  2610.5 secs   av.it.:   8.9
      thresh= 2.141E-07 alpha_mix =  0.700 |ddv_scf|^2 =  4.649E-14

      iter #   6 total cpu time :  2627.7 secs   av.it.:   9.2
      thresh= 2.156E-08 alpha_mix =  0.700 |ddv_scf|^2 =  3.121E-16

      iter #   7 total cpu time :  2646.2 secs   av.it.:   9.0
      thresh= 1.767E-09 alpha_mix =  0.700 |ddv_scf|^2 =  8.715E-18

     End of self-consistent calculation

     Convergence has been achieved 


     Representation #  18 mode #  18

     Self-consistent Calculation

      iter #   1 total cpu time :  2661.7 secs   av.it.:   3.5
      thresh= 1.000E-02 alpha_mix =  0.700 |ddv_scf|^2 =  2.574E-08

      iter #   2 total cpu time :  2675.4 secs   av.it.:   9.3
      thresh= 1.604E-05 alpha_mix =  0.700 |ddv_scf|^2 =  7.655E-10

      iter #   3 total cpu time :  2690.0 secs   av.it.:   9.4
      thresh= 2.767E-06 alpha_mix =  0.700 |ddv_scf|^2 =  8.048E-11

      iter #   4 total cpu time :  2705.2 secs   av.it.:   9.4
      thresh= 8.971E-07 alpha_mix =  0.700 |ddv_scf|^2 =  3.540E-12

      iter #   5 total cpu time :  2720.6 secs   av.it.:   9.3
      thresh= 1.881E-07 alpha_mix =  0.700 |ddv_scf|^2 =  1.659E-14

      iter #   6 total cpu time :  2738.4 secs   av.it.:   9.5
      thresh= 1.288E-08 alpha_mix =  0.700 |ddv_scf|^2 =  1.119E-16

      iter #   7 total cpu time :  2757.7 secs   av.it.:   9.0
      thresh= 1.058E-09 alpha_mix =  0.700 |ddv_scf|^2 =  3.999E-18

     End of self-consistent calculation

     Convergence has been achieved 


     Representation #  19 mode #  19

     Self-consistent Calculation

      iter #   1 total cpu time :  2773.8 secs   av.it.:   6.3
      thresh= 1.000E-02 alpha_mix =  0.700 |ddv_scf|^2 =  8.996E-06

      iter #   2 total cpu time :  2789.6 secs   av.it.:   9.4
      thresh= 2.999E-04 alpha_mix =  0.700 |ddv_scf|^2 =  8.858E-07

      iter #   3 total cpu time :  2806.7 secs   av.it.:   9.4
      thresh= 9.412E-05 alpha_mix =  0.700 |ddv_scf|^2 =  3.369E-09

      iter #   4 total cpu time :  2822.1 secs   av.it.:   9.0
      thresh= 5.804E-06 alpha_mix =  0.700 |ddv_scf|^2 =  1.245E-11

      iter #   5 total cpu time :  2837.9 secs   av.it.:   9.2
      thresh= 3.528E-07 alpha_mix =  0.700 |ddv_scf|^2 =  9.535E-14

      iter #   6 total cpu time :  2855.8 secs   av.it.:   8.6
      thresh= 3.088E-08 alpha_mix =  0.700 |ddv_scf|^2 =  2.998E-15

      iter #   7 total cpu time :  2874.5 secs   av.it.:   9.1
      thresh= 5.476E-09 alpha_mix =  0.700 |ddv_scf|^2 =  1.287E-17

     End of self-consistent calculation

     Convergence has been achieved 


     Representation #  20 mode #  20

     Self-consistent Calculation

      iter #   1 total cpu time :  2889.9 secs   av.it.:   4.0
      thresh= 1.000E-02 alpha_mix =  0.700 |ddv_scf|^2 =  7.219E-08

      iter #   2 total cpu time :  2905.4 secs   av.it.:   9.4
      thresh= 2.687E-05 alpha_mix =  0.700 |ddv_scf|^2 =  2.700E-09

      iter #   3 total cpu time :  2922.9 secs   av.it.:   9.5
      thresh= 5.196E-06 alpha_mix =  0.700 |ddv_scf|^2 =  2.309E-10

      iter #   4 total cpu time :  2938.2 secs   av.it.:   9.4
      thresh= 1.520E-06 alpha_mix =  0.700 |ddv_scf|^2 =  4.582E-12

      iter #   5 total cpu time :  2957.6 secs   av.it.:   8.9
      thresh= 2.141E-07 alpha_mix =  0.700 |ddv_scf|^2 =  4.649E-14

      iter #   6 total cpu time :  2981.4 secs   av.it.:   9.2
      thresh= 2.156E-08 alpha_mix =  0.700 |ddv_scf|^2 =  3.121E-16

      iter #   7 total cpu time :  2998.8 secs   av.it.:   9.0
      thresh= 1.767E-09 alpha_mix =  0.700 |ddv_scf|^2 =  8.715E-18

     End of self-consistent calculation

     Convergence has been achieved 


     Representation #  21 mode #  21

     Self-consistent Calculation

      iter #   1 total cpu time :  3013.5 secs   av.it.:   3.7
      thresh= 1.000E-02 alpha_mix =  0.700 |ddv_scf|^2 =  4.735E-08

      iter #   2 total cpu time :  3026.7 secs   av.it.:   9.3
      thresh= 2.176E-05 alpha_mix =  0.700 |ddv_scf|^2 =  1.064E-09

      iter #   3 total cpu time :  3043.1 secs   av.it.:   9.4
      thresh= 3.262E-06 alpha_mix =  0.700 |ddv_scf|^2 =  1.078E-10

      iter #   4 total cpu time :  3062.7 secs   av.it.:   9.4
      thresh= 1.038E-06 alpha_mix =  0.700 |ddv_scf|^2 =  5.359E-12

      iter #   5 total cpu time :  3081.1 secs   av.it.:   9.1
      thresh= 2.315E-07 alpha_mix =  0.700 |ddv_scf|^2 =  1.397E-14

      iter #   6 total cpu time :  3096.2 secs   av.it.:   9.5
      thresh= 1.182E-08 alpha_mix =  0.700 |ddv_scf|^2 =  1.147E-16

      iter #   7 total cpu time :  3110.6 secs   av.it.:   8.9
      thresh= 1.071E-09 alpha_mix =  0.700 |ddv_scf|^2 =  4.822E-18

     End of self-consistent calculation

     Convergence has been achieved 
 
     Number of q in the star =   12
     List of q in the star:
          1   0.108253200   0.108253200   0.000000000
          2  -0.108253200  -0.108253200   0.000000000
          3   0.108253200  -0.108253200   0.000000000
          4  -0.108253200   0.108253200   0.000000000
          5  -0.000000000  -0.108253200   0.108253200
          6   0.000000000  -0.108253200  -0.108253200
          7   0.000000000   0.108253200  -0.108253200
          8  -0.000000000   0.108253200   0.108253200
          9  -0.108253200  -0.000000000   0.108253200
         10  -0.108253200   0.000000000  -0.108253200
         11   0.108253200   0.000000000  -0.108253200
         12   0.108253200  -0.000000000   0.108253200

     Diagonalizing the dynamical matrix

     q = (    0.108253200   0.108253200   0.000000000 ) 

 **************************************************************************
     freq (    1) =       3.648686 [THz] =     121.707078 [cm-1]
     freq (    2) =       4.631002 [THz] =     154.473595 [cm-1]
     freq (    3) =       7.672244 [THz] =     255.918517 [cm-1]
     freq (    4) =      30.452071 [THz] =    1015.771760 [cm-1]
     freq (    5) =      31.560340 [THz] =    1052.739629 [cm-1]
     freq (    6) =      33.210877 [THz] =    1107.795615 [cm-1]
     freq (    7) =      34.437486 [THz] =    1148.710889 [cm-1]
     freq (    8) =      34.599164 [THz] =    1154.103867 [cm-1]
     freq (    9) =      36.199306 [THz] =    1207.478860 [cm-1]
     freq (   10) =      39.974416 [THz] =    1333.402999 [cm-1]
     freq (   11) =      40.871248 [THz] =    1363.318093 [cm-1]
     freq (   12) =      41.345039 [THz] =    1379.122064 [cm-1]
     freq (   13) =      43.974925 [THz] =    1466.845613 [cm-1]
     freq (   14) =      43.985242 [THz] =    1467.189751 [cm-1]
     freq (   15) =      44.344843 [THz] =    1479.184748 [cm-1]
     freq (   16) =      45.274389 [THz] =    1510.191063 [cm-1]
     freq (   17) =      50.119168 [THz] =    1671.795483 [cm-1]
     freq (   18) =      50.126016 [THz] =    1672.023903 [cm-1]
     freq (   19) =      50.689587 [THz] =    1690.822637 [cm-1]
     freq (   20) =      62.334683 [THz] =    2079.261218 [cm-1]
     freq (   21) =      62.963504 [THz] =    2100.236430 [cm-1]
 **************************************************************************

     Mode symmetry, C_2v (mm2)  point group:

     freq (   1-   1) =        121.7  [cm-1]   --> B_2  D_4  S_4      
     freq (   2-   2) =        154.5  [cm-1]   --> B_1  D_3  S_3      
     freq (   3-   3) =        255.9  [cm-1]   --> A_1  D_1  S_1      
     freq (   4-   4) =       1015.8  [cm-1]   --> B_1  D_3  S_3      
     freq (   5-   5) =       1052.7  [cm-1]   --> B_2  D_4  S_4      
     freq (   6-   6) =       1107.8  [cm-1]   --> A_2  D_2  S_2      
     freq (   7-   7) =       1148.7  [cm-1]   --> A_1  D_1  S_1      
     freq (   8-   8) =       1154.1  [cm-1]   --> B_2  D_4  S_4      
     freq (   9-   9) =       1207.5  [cm-1]   --> A_1  D_1  S_1      
     freq (  10-  10) =       1333.4  [cm-1]   --> B_1  D_3  S_3      
     freq (  11-  11) =       1363.3  [cm-1]   --> B_2  D_4  S_4      
     freq (  12-  12) =       1379.1  [cm-1]   --> A_1  D_1  S_1      
     freq (  13-  13) =       1466.8  [cm-1]   --> B_2  D_4  S_4      
     freq (  14-  14) =       1467.2  [cm-1]   --> B_1  D_3  S_3      
     freq (  15-  15) =       1479.2  [cm-1]   --> A_2  D_2  S_2      
     freq (  16-  16) =       1510.2  [cm-1]   --> B_1  D_3  S_3      
     freq (  17-  17) =       1671.8  [cm-1]   --> A_2  D_2  S_2      
     freq (  18-  18) =       1672.0  [cm-1]   --> A_1  D_1  S_1      
     freq (  19-  19) =       1690.8  [cm-1]   --> B_1  D_3  S_3      
     freq (  20-  20) =       2079.3  [cm-1]   --> A_1  D_1  S_1      
     freq (  21-  21) =       2100.2  [cm-1]   --> B_1  D_3  S_3      
     electron-phonon interaction  ...

     Gaussian Broadening:   0.005 Ry, ngauss=   0
     DOS =  1.900675 states/spin/Ry/Unit Cell at Ef= 17.155196 eV
     lambda(    1)=  0.1611   gamma=    3.89 GHz
     lambda(    2)=  0.1145   gamma=    4.46 GHz
     lambda(    3)=  0.2813   gamma=   30.05 GHz
     lambda(    4)=  0.0386   gamma=   65.03 GHz
     lambda(    5)=  0.0591   gamma=  106.89 GHz
     lambda(    6)=  0.9342   gamma= 1870.18 GHz
     lambda(    7)=  0.1064   gamma=  229.03 GHz
     lambda(    8)=  0.1593   gamma=  346.07 GHz
     lambda(    9)=  0.6142   gamma= 1460.84 GHz
     lambda(   10)=  0.0042   gamma=   12.24 GHz
     lambda(   11)=  0.0054   gamma=   16.43 GHz
     lambda(   12)=  0.0732   gamma=  227.25 GHz
     lambda(   13)=  0.0005   gamma=    1.90 GHz
     lambda(   14)=  0.0018   gamma=    6.49 GHz
     lambda(   15)=  0.0030   gamma=   10.86 GHz
     lambda(   16)=  0.0017   gamma=    6.28 GHz
     lambda(   17)=  0.0052   gamma=   23.88 GHz
     lambda(   18)=  0.0039   gamma=   17.93 GHz
     lambda(   19)=  0.0016   gamma=    7.41 GHz
     lambda(   20)=  0.0561   gamma=  395.68 GHz
     lambda(   21)=  0.0071   gamma=   51.26 GHz
     Gaussian Broadening:   0.010 Ry, ngauss=   0
     DOS =  2.130656 states/spin/Ry/Unit Cell at Ef= 17.149400 eV
     lambda(    1)=  0.2009   gamma=    5.44 GHz
     lambda(    2)=  0.0592   gamma=    2.58 GHz
     lambda(    3)=  0.2785   gamma=   33.35 GHz
     lambda(    4)=  0.0314   gamma=   59.18 GHz
     lambda(    5)=  0.0783   gamma=  158.65 GHz
     lambda(    6)=  0.3809   gamma=  854.85 GHz
     lambda(    7)=  0.1707   gamma=  411.83 GHz
     lambda(    8)=  0.1637   gamma=  398.76 GHz
     lambda(    9)=  0.6963   gamma= 1856.52 GHz
     lambda(   10)=  0.0052   gamma=   17.01 GHz
     lambda(   11)=  0.0079   gamma=   26.98 GHz
     lambda(   12)=  0.0650   gamma=  226.24 GHz
     lambda(   13)=  0.0013   gamma=    5.22 GHz
     lambda(   14)=  0.0025   gamma=   10.03 GHz
     lambda(   15)=  0.0028   gamma=   11.13 GHz
     lambda(   16)=  0.0006   gamma=    2.51 GHz
     lambda(   17)=  0.0057   gamma=   29.31 GHz
     lambda(   18)=  0.0043   gamma=   21.76 GHz
     lambda(   19)=  0.0020   gamma=   10.43 GHz
     lambda(   20)=  0.1018   gamma=  804.78 GHz
     lambda(   21)=  0.0137   gamma=  110.23 GHz
     Gaussian Broadening:   0.015 Ry, ngauss=   0
     DOS =  2.235086 states/spin/Ry/Unit Cell at Ef= 17.146382 eV
     lambda(    1)=  0.2206   gamma=    6.27 GHz
     lambda(    2)=  0.0549   gamma=    2.51 GHz
     lambda(    3)=  0.2814   gamma=   35.35 GHz
     lambda(    4)=  0.0262   gamma=   51.86 GHz
     lambda(    5)=  0.0856   gamma=  181.90 GHz
     lambda(    6)=  0.3185   gamma=  749.84 GHz
     lambda(    7)=  0.1627   gamma=  411.90 GHz
     lambda(    8)=  0.1558   gamma=  397.97 GHz
     lambda(    9)=  0.6464   gamma= 1807.75 GHz
     lambda(   10)=  0.0057   gamma=   19.42 GHz
     lambda(   11)=  0.0067   gamma=   24.02 GHz
     lambda(   12)=  0.0644   gamma=  234.85 GHz
     lambda(   13)=  0.0013   gamma=    5.30 GHz
     lambda(   14)=  0.0023   gamma=    9.57 GHz
     lambda(   15)=  0.0024   gamma=   10.10 GHz
     lambda(   16)=  0.0005   gamma=    2.04 GHz
     lambda(   17)=  0.0050   gamma=   27.00 GHz
     lambda(   18)=  0.0052   gamma=   27.70 GHz
     lambda(   19)=  0.0021   gamma=   11.40 GHz
     lambda(   20)=  0.0838   gamma=  695.32 GHz
     lambda(   21)=  0.0136   gamma=  115.17 GHz
     Gaussian Broadening:   0.020 Ry, ngauss=   0
     DOS =  2.290454 states/spin/Ry/Unit Cell at Ef= 17.145317 eV
     lambda(    1)=  0.2237   gamma=    6.51 GHz
     lambda(    2)=  0.0547   gamma=    2.57 GHz
     lambda(    3)=  0.2710   gamma=   34.89 GHz
     lambda(    4)=  0.0259   gamma=   52.51 GHz
     lambda(    5)=  0.0864   gamma=  188.24 GHz
     lambda(    6)=  0.3090   gamma=  745.55 GHz
     lambda(    7)=  0.1530   gamma=  396.97 GHz
     lambda(    8)=  0.1510   gamma=  395.39 GHz
     lambda(    9)=  0.6043   gamma= 1731.87 GHz
     lambda(   10)=  0.0059   gamma=   20.45 GHz
     lambda(   11)=  0.0062   gamma=   22.49 GHz
     lambda(   12)=  0.0611   gamma=  228.40 GHz
     lambda(   13)=  0.0012   gamma=    5.12 GHz
     lambda(   14)=  0.0022   gamma=    9.40 GHz
     lambda(   15)=  0.0022   gamma=    9.52 GHz
     lambda(   16)=  0.0004   gamma=    1.98 GHz
     lambda(   17)=  0.0047   gamma=   25.61 GHz
     lambda(   18)=  0.0050   gamma=   27.51 GHz
     lambda(   19)=  0.0021   gamma=   12.02 GHz
     lambda(   20)=  0.0675   gamma=  573.85 GHz
     lambda(   21)=  0.0135   gamma=  117.28 GHz
     Gaussian Broadening:   0.025 Ry, ngauss=   0
     DOS =  2.332190 states/spin/Ry/Unit Cell at Ef= 17.144758 eV
     lambda(    1)=  0.2306   gamma=    6.84 GHz
     lambda(    2)=  0.0557   gamma=    2.66 GHz
     lambda(    3)=  0.2561   gamma=   33.57 GHz
     lambda(    4)=  0.0302   gamma=   62.29 GHz
     lambda(    5)=  0.0884   gamma=  196.12 GHz
     lambda(    6)=  0.3107   gamma=  763.17 GHz
     lambda(    7)=  0.1433   gamma=  378.45 GHz
     lambda(    8)=  0.1521   gamma=  405.60 GHz
     lambda(    9)=  0.5624   gamma= 1641.36 GHz
     lambda(   10)=  0.0060   gamma=   21.39 GHz
     lambda(   11)=  0.0061   gamma=   22.54 GHz
     lambda(   12)=  0.0575   gamma=  218.99 GHz
     lambda(   13)=  0.0012   gamma=    5.35 GHz
     lambda(   14)=  0.0023   gamma=    9.86 GHz
     lambda(   15)=  0.0022   gamma=    9.74 GHz
     lambda(   16)=  0.0004   gamma=    1.99 GHz
     lambda(   17)=  0.0044   gamma=   24.62 GHz
     lambda(   18)=  0.0047   gamma=   26.24 GHz
     lambda(   19)=  0.0022   gamma=   12.61 GHz
     lambda(   20)=  0.0583   gamma=  504.48 GHz
     lambda(   21)=  0.0140   gamma=  124.01 GHz
     Gaussian Broadening:   0.030 Ry, ngauss=   0
     DOS =  2.360595 states/spin/Ry/Unit Cell at Ef= 17.144134 eV
     lambda(    1)=  0.2450   gamma=    7.35 GHz
     lambda(    2)=  0.0581   gamma=    2.81 GHz
     lambda(    3)=  0.2403   gamma=   31.89 GHz
     lambda(    4)=  0.0363   gamma=   75.89 GHz
     lambda(    5)=  0.0928   gamma=  208.39 GHz
     lambda(    6)=  0.3223   gamma=  801.42 GHz
     lambda(    7)=  0.1346   gamma=  359.82 GHz
     lambda(    8)=  0.1586   gamma=  428.09 GHz
     lambda(    9)=  0.5235   gamma= 1546.30 GHz
     lambda(   10)=  0.0063   gamma=   22.53 GHz
     lambda(   11)=  0.0062   gamma=   23.38 GHz
     lambda(   12)=  0.0544   gamma=  209.77 GHz
     lambda(   13)=  0.0014   gamma=    5.95 GHz
     lambda(   14)=  0.0025   gamma=   10.83 GHz
     lambda(   15)=  0.0024   gamma=   10.57 GHz
     lambda(   16)=  0.0004   gamma=    2.05 GHz
     lambda(   17)=  0.0042   gamma=   23.81 GHz
     lambda(   18)=  0.0045   gamma=   25.29 GHz
     lambda(   19)=  0.0023   gamma=   13.08 GHz
     lambda(   20)=  0.0535   gamma=  468.68 GHz
     lambda(   21)=  0.0153   gamma=  136.98 GHz
     Gaussian Broadening:   0.035 Ry, ngauss=   0
     DOS =  2.381114 states/spin/Ry/Unit Cell at Ef= 17.143351 eV
     lambda(    1)=  0.2647   gamma=    8.01 GHz
     lambda(    2)=  0.0616   gamma=    3.00 GHz
     lambda(    3)=  0.2249   gamma=   30.11 GHz
     lambda(    4)=  0.0425   gamma=   89.56 GHz
     lambda(    5)=  0.0989   gamma=  223.92 GHz
     lambda(    6)=  0.3413   gamma=  856.07 GHz
     lambda(    7)=  0.1273   gamma=  343.16 GHz
     lambda(    8)=  0.1687   gamma=  459.16 GHz
     lambda(    9)=  0.4896   gamma= 1458.89 GHz
     lambda(   10)=  0.0065   gamma=   23.75 GHz
     lambda(   11)=  0.0065   gamma=   24.63 GHz
     lambda(   12)=  0.0519   gamma=  201.54 GHz
     lambda(   13)=  0.0015   gamma=    6.81 GHz
     lambda(   14)=  0.0027   gamma=   12.09 GHz
     lambda(   15)=  0.0026   gamma=   11.84 GHz
     lambda(   16)=  0.0005   gamma=    2.16 GHz
     lambda(   17)=  0.0041   gamma=   23.21 GHz
     lambda(   18)=  0.0043   gamma=   24.79 GHz
     lambda(   19)=  0.0023   gamma=   13.52 GHz
     lambda(   20)=  0.0510   gamma=  450.63 GHz
     lambda(   21)=  0.0171   gamma=  154.23 GHz
     Gaussian Broadening:   0.040 Ry, ngauss=   0
     DOS =  2.398900 states/spin/Ry/Unit Cell at Ef= 17.142416 eV
     lambda(    1)=  0.2863   gamma=    8.73 GHz
     lambda(    2)=  0.0655   gamma=    3.22 GHz
     lambda(    3)=  0.2108   gamma=   28.42 GHz
     lambda(    4)=  0.0481   gamma=  102.20 GHz
     lambda(    5)=  0.1055   gamma=  240.77 GHz
     lambda(    6)=  0.3633   gamma=  917.81 GHz
     lambda(    7)=  0.1211   gamma=  329.00 GHz
     lambda(    8)=  0.1801   gamma=  493.80 GHz
     lambda(    9)=  0.4608   gamma= 1383.40 GHz
     lambda(   10)=  0.0068   gamma=   25.04 GHz
     lambda(   11)=  0.0068   gamma=   26.14 GHz
     lambda(   12)=  0.0497   gamma=  194.57 GHz
     lambda(   13)=  0.0018   gamma=    7.87 GHz
     lambda(   14)=  0.0030   gamma=   13.50 GHz
     lambda(   15)=  0.0030   gamma=   13.43 GHz
     lambda(   16)=  0.0005   gamma=    2.31 GHz
     lambda(   17)=  0.0040   gamma=   22.84 GHz
     lambda(   18)=  0.0043   gamma=   24.63 GHz
     lambda(   19)=  0.0024   gamma=   13.99 GHz
     lambda(   20)=  0.0496   gamma=  441.86 GHz
     lambda(   21)=  0.0191   gamma=  173.49 GHz
     Gaussian Broadening:   0.045 Ry, ngauss=   0
     DOS =  2.416850 states/spin/Ry/Unit Cell at Ef= 17.141341 eV
     lambda(    1)=  0.3072   gamma=    9.44 GHz
     lambda(    2)=  0.0693   gamma=    3.43 GHz
     lambda(    3)=  0.1981   gamma=   26.91 GHz
     lambda(    4)=  0.0531   gamma=  113.71 GHz
     lambda(    5)=  0.1120   gamma=  257.45 GHz
     lambda(    6)=  0.3842   gamma=  977.97 GHz
     lambda(    7)=  0.1159   gamma=  317.18 GHz
     lambda(    8)=  0.1911   gamma=  528.01 GHz
     lambda(    9)=  0.4364   gamma= 1319.68 GHz
     lambda(   10)=  0.0072   gamma=   26.46 GHz
     lambda(   11)=  0.0072   gamma=   27.92 GHz
     lambda(   12)=  0.0479   gamma=  188.83 GHz
     lambda(   13)=  0.0020   gamma=    9.12 GHz
     lambda(   14)=  0.0034   gamma=   15.00 GHz
     lambda(   15)=  0.0034   gamma=   15.24 GHz
     lambda(   16)=  0.0005   gamma=    2.49 GHz
     lambda(   17)=  0.0039   gamma=   22.70 GHz
     lambda(   18)=  0.0043   gamma=   24.73 GHz
     lambda(   19)=  0.0025   gamma=   14.55 GHz
     lambda(   20)=  0.0488   gamma=  437.96 GHz
     lambda(   21)=  0.0211   gamma=  193.34 GHz
     Gaussian Broadening:   0.050 Ry, ngauss=   0
     DOS =  2.436152 states/spin/Ry/Unit Cell at Ef= 17.140123 eV
     lambda(    1)=  0.3261   gamma=   10.10 GHz
     lambda(    2)=  0.0728   gamma=    3.63 GHz
     lambda(    3)=  0.1869   gamma=   25.59 GHz
     lambda(    4)=  0.0576   gamma=  124.29 GHz
     lambda(    5)=  0.1179   gamma=  273.15 GHz
     lambda(    6)=  0.4019   gamma= 1031.22 GHz
     lambda(    7)=  0.1114   gamma=  307.40 GHz
     lambda(    8)=  0.2009   gamma=  559.56 GHz
     lambda(    9)=  0.4154   gamma= 1266.47 GHz
     lambda(   10)=  0.0076   gamma=   28.07 GHz
     lambda(   11)=  0.0077   gamma=   30.01 GHz
     lambda(   12)=  0.0463   gamma=  184.22 GHz
     lambda(   13)=  0.0024   gamma=   10.59 GHz
     lambda(   14)=  0.0037   gamma=   16.57 GHz
     lambda(   15)=  0.0038   gamma=   17.22 GHz
     lambda(   16)=  0.0006   gamma=    2.70 GHz
     lambda(   17)=  0.0039   gamma=   22.79 GHz
     lambda(   18)=  0.0043   gamma=   25.04 GHz
     lambda(   19)=  0.0025   gamma=   15.24 GHz
     lambda(   20)=  0.0483   gamma=  436.63 GHz
     lambda(   21)=  0.0231   gamma=  213.10 GHz
 
 
     Number of q in the star =   12
     List of q in the star:
          1   0.108253200   0.108253200   0.000000000
          2  -0.108253200  -0.108253200   0.000000000
          3   0.108253200  -0.108253200   0.000000000
          4  -0.108253200   0.108253200   0.000000000
          5  -0.000000000  -0.108253200   0.108253200
          6   0.000000000  -0.108253200  -0.108253200
          7   0.000000000   0.108253200  -0.108253200
          8  -0.000000000   0.108253200   0.108253200
          9  -0.108253200  -0.000000000   0.108253200
         10  -0.108253200   0.000000000  -0.108253200
         11   0.108253200   0.000000000  -0.108253200
         12   0.108253200  -0.000000000   0.108253200
 
     init_run     :      0.07s CPU      0.23s WALL (       1 calls)
     electrons    :     18.11s CPU     19.91s WALL (       1 calls)

     Called by init_run:
     wfcinit      :      0.00s CPU      0.09s WALL (       1 calls)
     potinit      :      0.01s CPU      0.06s WALL (       1 calls)
     hinit0       :      0.03s CPU      0.04s WALL (       1 calls)

     Called by electrons:
     c_bands      :     18.09s CPU     19.89s WALL (       1 calls)
     v_of_rho     :      0.01s CPU      0.02s WALL (       2 calls)
     newd         :      0.01s CPU      0.02s WALL (       2 calls)

     Called by c_bands:
     init_us_2    :      1.76s CPU      1.97s WALL (   66410 calls)
     cegterg      :      8.73s CPU      9.42s WALL (     583 calls)

     Called by *egterg:
     cdiaghg      :      2.99s CPU      3.26s WALL (    8935 calls)
     h_psi        :   1033.60s CPU   1270.88s WALL (  659540 calls)
     s_psi        :     13.68s CPU     15.51s WALL ( 1362052 calls)
     g_psi        :      0.03s CPU      0.03s WALL (    8355 calls)

     Called by h_psi:
     h_psi:calbec :     12.22s CPU     13.74s WALL (  659540 calls)
     vloc_psi     :   1008.98s CPU   1243.14s WALL (  659540 calls)
     add_vuspsi   :      6.77s CPU      7.67s WALL (  659540 calls)

     General routines
     calbec       :     55.07s CPU     59.14s WALL ( 1449052 calls)
     fft          :      0.61s CPU      1.05s WALL (    3607 calls)
     ffts         :      0.48s CPU      0.57s WALL (    6937 calls)
     fftw         :   1394.57s CPU   1730.77s WALL ( 9429023 calls)
     interpolate  :      0.23s CPU      0.29s WALL (     385 calls)
     davcio       :      8.53s CPU    324.96s WALL (  285199 calls)
 
     Parallel routines
 
     PHONON       :  39m47.06s CPU  52m31.10s WALL

     INITIALIZATION: 
     phq_setup    :      0.01s CPU      0.03s WALL (       1 calls)
     phq_init     :     14.46s CPU     17.14s WALL (       1 calls)
 
     phq_init     :     14.46s CPU     17.14s WALL (       1 calls)
     set_drhoc    :      0.05s CPU      0.05s WALL (       3 calls)
     init_vloc    :      0.00s CPU      0.01s WALL (       2 calls)
     init_us_1    :      0.05s CPU      0.09s WALL (       2 calls)
     newd         :      0.01s CPU      0.02s WALL (       2 calls)
     dvanqq       :      0.17s CPU      0.17s WALL (       1 calls)
     drho         :      8.63s CPU     10.16s WALL (       1 calls)
 
     DYNAMICAL MATRIX:
     dynmat0      :      2.72s CPU      3.23s WALL (       1 calls)
     phqscf       :   2321.25s CPU   3076.80s WALL (       1 calls)
     dynmatrix    :      0.05s CPU      0.08s WALL (       1 calls)
 
     phqscf       :   2321.25s CPU   3076.80s WALL (       1 calls)
     solve_linter :   2293.32s CPU   3043.10s WALL (      21 calls)
     drhodv       :     27.90s CPU     30.82s WALL (      21 calls)
 
     dynmat0      :      2.72s CPU      3.23s WALL (       1 calls)
     dynmat_us    :      2.68s CPU      3.17s WALL (       1 calls)
     d2ionq       :      0.01s CPU      0.01s WALL (       1 calls)
     dynmatcc     :      0.04s CPU      0.04s WALL (       1 calls)
 
     dynmat_us    :      2.68s CPU      3.17s WALL (       1 calls)
     addusdynmat  :      0.00s CPU      0.00s WALL (       1 calls)
 
     phqscf       :   2321.25s CPU   3076.80s WALL (       1 calls)
     solve_linter :   2293.32s CPU   3043.10s WALL (      21 calls)
 
     solve_linter :   2293.32s CPU   3043.10s WALL (      21 calls)
     dvqpsi_us    :      9.03s CPU      9.87s WALL (    6090 calls)
     ortho        :     26.57s CPU     27.89s WALL (   52490 calls)
     cgsolve      :   1078.03s CPU   1321.36s WALL (   52490 calls)
     incdrhoscf   :    190.29s CPU    239.40s WALL (   52490 calls)
     addusddens   :      3.10s CPU      4.91s WALL (     202 calls)
     vpsifft      :    222.49s CPU    279.00s WALL (   52490 calls)
     dv_of_drho   :      0.53s CPU      0.56s WALL (     181 calls)
     mix_pot      :     18.77s CPU     57.14s WALL (     181 calls)
     psymdvscf    :      6.86s CPU      7.10s WALL (     181 calls)
     newdq        :      2.60s CPU      2.62s WALL (     181 calls)
     adddvscf     :      1.72s CPU      1.95s WALL (   52490 calls)
     drhodvus     :      5.52s CPU     11.11s WALL (      21 calls)
 
     dvqpsi_us    :      9.03s CPU      9.87s WALL (    6090 calls)
     dvqpsi_us_on :      3.44s CPU      3.67s WALL (    6090 calls)
 
     cgsolve      :   1078.03s CPU   1321.36s WALL (   52490 calls)
     ch_psi       :   1069.52s CPU   1311.64s WALL (  650022 calls)
 
     ch_psi       :   1069.52s CPU   1311.64s WALL (  650022 calls)
     h_psi        :   1033.60s CPU   1270.88s WALL (  659540 calls)
     last         :     27.25s CPU     30.76s WALL (  650022 calls)
 
     h_psi        :   1033.60s CPU   1270.88s WALL (  659540 calls)
     add_vuspsi   :      6.77s CPU      7.67s WALL (  659540 calls)
 
     incdrhoscf   :    190.29s CPU    239.40s WALL (   52490 calls)
     addusdbec    :      1.69s CPU      1.89s WALL (   58580 calls)
 
     drhodvus     :      5.52s CPU     11.11s WALL (      21 calls)
 
      Electron-phonon coupling
     elphel       :     72.03s CPU    105.61s WALL (      21 calls)
     elphsum      :     32.42s CPU     33.11s WALL (       1 calls)
 
      General routines
     calbec       :     55.07s CPU     59.14s WALL ( 1449052 calls)
     fft          :      0.61s CPU      1.05s WALL (    3607 calls)
     ffts         :      0.48s CPU      0.57s WALL (    6937 calls)
     fftw         :   1394.57s CPU   1730.77s WALL ( 9429023 calls)
     davcio       :      8.53s CPU    324.96s WALL (  285199 calls)
     write_rec    :      0.15s CPU     26.37s WALL (     202 calls)
 
 
     PHONON       :  39m47.06s CPU  52m31.10s WALL

 
   This run was terminated on:  23:20:55  21Jul2022            

=------------------------------------------------------------------------------=
   JOB DONE.
=------------------------------------------------------------------------------=
