
     Program PHONON v.6.8 starts on 21Jul2022 at 17:11:13 

     This program is part of the open-source Quantum ESPRESSO suite
     for quantum simulation of materials; please cite
         "P. Giannozzi et al., J. Phys.:Condens. Matter 21 395502 (2009);
         "P. Giannozzi et al., J. Phys.:Condens. Matter 29 465901 (2017);
         "P. Giannozzi et al., J. Chem. Phys. 152 154105 (2020);
          URL http://www.quantum-espresso.org", 
     in publications or presentations arising from this work. More details at
     http://www.quantum-espresso.org/quote

     Parallel version (MPI), running on    48 processors

     MPI processes distributed on     1 nodes
     K-points division:     npool     =       4
     R & G space division:  proc/nbgrp/npool/nimage =      12
     188661 MiB available memory on the printing compute node when the environment starts
 
     Waiting for input...
     Reading input from standard input

     Reading xml data from directory:

     ./tmp/Ca1H6.save/

     IMPORTANT: XC functional enforced from input :
     Exchange-correlation= PBE
                           (   1   4   3   4   0   0   0)
     Any further DFT definition will be discarded
     Please, verify this is what you really want

 
     Parallelization info
     --------------------
     sticks:   dense  smooth     PW     G-vecs:    dense   smooth      PW
     Min         139      46     17                 3602      698     155
     Max         140      47     18                 3604      701     157
     Sum        1669     557    205                43227     8391    1865
 
     Using Slab Decomposition
 
     Reading collected, re-writing distributed wavefunctions

     Saving dvscf to file. Distribute only q points, not irreducible represetations.

     Calculation of q =    0.4330127   0.3247595   0.3247595

     Subspace diagonalization in iterative solution of the eigenvalue problem:
     a serial algorithm will be used

 
     Parallelization info
     --------------------
     sticks:   dense  smooth     PW     G-vecs:    dense   smooth      PW
     Min         139      46     17                 3602      698     162
     Max         140      47     18                 3604      701     164
     Sum        1669     557    213                43227     8391    1961
 
     Using Slab Decomposition
 

     Title: 
     Electron-phonon coefficients for Ca1H6                                     


     bravais-lattice index     =            0
     lattice parameter (alat)  =       5.5613  a.u.
     unit-cell volume          =     132.4087 (a.u.)^3
     number of atoms/cell      =            7
     number of atomic types    =            2
     number of electrons       =        16.00
     number of Kohn-Sham states=           12
     kinetic-energy cutoff     =      60.0000  Ry
     charge density cutoff     =     720.0000  Ry
     Exchange-correlation= PBE
                           (   1   4   3   4   0   0   0)

     celldm(1)=   5.561340  celldm(2)=   0.000000  celldm(3)=   0.000000
     celldm(4)=   0.000000  celldm(5)=   0.000000  celldm(6)=   0.000000

     crystal axes: (cart. coord. in units of alat)
               a(1) = (  -0.577350   0.577350   0.577350 )  
               a(2) = (   0.577350  -0.577350   0.577350 )  
               a(3) = (   0.577350   0.577350  -0.577350 )  

     reciprocal axes: (cart. coord. in units 2 pi/alat)
               b(1) = ( -0.000000  0.866025  0.866025 )  
               b(2) = (  0.866025 -0.000000  0.866025 )  
               b(3) = (  0.866025  0.866025  0.000000 )  


     PseudoPot. # 1 for Ca read from file:
     /work/home/mayuan/code/my_script/scripts_tests/out2/200.0/pp/ca_pbe_v1.uspp.F.UPF
     MD5 check sum: 403a4c14b9e4d4dfdc3024c9a3812218
     Pseudo is Ultrasoft + core correction, Zval = 10.0
     Generated by new atomic code, or converted to UPF format
     Using radial grid of  845 points,  6 beta functions with: 
                l(1) =   0
                l(2) =   0
                l(3) =   1
                l(4) =   1
                l(5) =   2
                l(6) =   2
     Q(r) pseudized with  8 coefficients,  rinner =    1.500   1.500   1.500
                                                       1.500   1.500

     PseudoPot. # 2 for H  read from file:
     /work/home/mayuan/code/my_script/scripts_tests/out2/200.0/pp/h_pbe_v1.uspp.F.UPF
     MD5 check sum: 3408e3ff4ec8b0a4e358431e7e038a48
     Pseudo is Ultrasoft, Zval =  1.0
     Generated by new atomic code, or converted to UPF format
     Using radial grid of  615 points,  2 beta functions with: 
                l(1) =   0
                l(2) =   0
     Q(r) pseudized with  8 coefficients,  rinner =    0.700

     atomic species   valence    mass     pseudopotential
        Ca            10.00    40.07800     Ca( 1.00)
        H              1.00     1.00794     H ( 1.00)

     48 Sym. Ops., with inversion, found



   Cartesian axes

     site n.     atom                  positions (alat units)
         1           Ca  tau(   1) = (   0.0000000   0.0000000   0.0000000  )
         2           H   tau(   2) = (   0.2886751   0.0000000   0.5773503  )
         3           H   tau(   3) = (   0.2886751   0.5773503   0.0000000  )
         4           H   tau(   4) = (   0.5773503   0.2886751   0.0000000  )
         5           H   tau(   5) = (   0.0000000   0.2886751   0.5773503  )
         6           H   tau(   6) = (   0.0000000   0.5773503   0.2886751  )
         7           H   tau(   7) = (   0.5773503   0.0000000   0.2886751  )

     number of k points=  4352  Methfessel-Paxton smearing, width (Ry)=  0.0200

     Number of k-points >= 100: set verbosity='high' to print them.

     Dense  grid:    43227 G-vectors     FFT dimensions: (  48,  48,  48)

     Smooth grid:     8391 G-vectors     FFT dimensions: (  27,  27,  27)

     Estimated max dynamical RAM per process >       8.37 MB

     Estimated total dynamical RAM >     401.94 MB

     The potential is recalculated from file :
     ./tmp/_ph0/Ca1H6.save/charge-density

     Starting wfcs are   16 atomic wfcs

     Band Structure Calculation
     Davidson diagonalization with overlap

     ethr =  6.25E-11,  avg # of iterations = 15.0

     total cpu time spent up to now is       28.2 secs

     End of band structure calculation

     Number of k-points >= 100: set verbosity='high' to print the bands.

     the Fermi energy is    17.0980 ev

     Writing output data file ./tmp/_ph0/Ca1H6.save/

     Electron-phonon coefficients for Ca1H6                                     

     bravais-lattice index     =            0
     lattice parameter (alat)  =       5.5613  a.u.
     unit-cell volume          =     132.4087 (a.u.)^3
     number of atoms/cell      =            7
     number of atomic types    =            2
     kinetic-energy cut-off    =      60.0000  Ry
     charge density cut-off    =     720.0000  Ry
     convergence threshold     =      1.0E-16
     beta                      =       0.7000
     number of iterations used =            4
     Exchange-correlation= PBE
                           (   1   4   3   4   0   0   0)


     celldm(1)=    5.56134  celldm(2)=    0.00000  celldm(3)=    0.00000
     celldm(4)=    0.00000  celldm(5)=    0.00000  celldm(6)=    0.00000

     crystal axes: (cart. coord. in units of alat)
               a(1) = ( -0.5774  0.5774  0.5774 )  
               a(2) = (  0.5774 -0.5774  0.5774 )  
               a(3) = (  0.5774  0.5774 -0.5774 )  

     reciprocal axes: (cart. coord. in units 2 pi/alat)
               b(1) = ( -0.0000  0.8660  0.8660 )  
               b(2) = (  0.8660 -0.0000  0.8660 )  
               b(3) = (  0.8660  0.8660  0.0000 )  


     Atoms inside the unit cell: 

     Cartesian axes

     site n.  atom      mass           positions (alat units)
        1     Ca  40.0780   tau(    1) = (    0.00000    0.00000    0.00000  )
        2     H    1.0079   tau(    2) = (    0.28868    0.00000    0.57735  )
        3     H    1.0079   tau(    3) = (    0.28868    0.57735    0.00000  )
        4     H    1.0079   tau(    4) = (    0.57735    0.28868    0.00000  )
        5     H    1.0079   tau(    5) = (    0.00000    0.28868    0.57735  )
        6     H    1.0079   tau(    6) = (    0.00000    0.57735    0.28868  )
        7     H    1.0079   tau(    7) = (    0.57735    0.00000    0.28868  )

     Computing dynamical matrix for 
                    q = (   0.4330127   0.3247595   0.3247595 )
 
      2 Sym.Ops. (no q -> -q+G )


     G cutoff =  564.0682  (   3604 G-vectors)     FFT grid: ( 48, 48, 48)
     G cutoff =  188.0227  (    699 G-vectors)  smooth grid: ( 27, 27, 27)

     number of k points=  4352  Methfessel-Paxton smearing, width (Ry)=  0.0200

     PseudoPot. # 1 for Ca read from file:
     /work/home/mayuan/code/my_script/scripts_tests/out2/200.0/pp/ca_pbe_v1.uspp.F.UPF
     MD5 check sum: 403a4c14b9e4d4dfdc3024c9a3812218
     Pseudo is Ultrasoft + core correction, Zval = 10.0
     Generated by new atomic code, or converted to UPF format
     Using radial grid of  845 points,  6 beta functions with: 
                l(1) =   0
                l(2) =   0
                l(3) =   1
                l(4) =   1
                l(5) =   2
                l(6) =   2
     Q(r) pseudized with  8 coefficients,  rinner =    1.500   1.500   1.500
                                                       1.500   1.500

     PseudoPot. # 2 for H  read from file:
     /work/home/mayuan/code/my_script/scripts_tests/out2/200.0/pp/h_pbe_v1.uspp.F.UPF
     MD5 check sum: 3408e3ff4ec8b0a4e358431e7e038a48
     Pseudo is Ultrasoft, Zval =  1.0
     Generated by new atomic code, or converted to UPF format
     Using radial grid of  615 points,  2 beta functions with: 
                l(1) =   0
                l(2) =   0
     Q(r) pseudized with  8 coefficients,  rinner =    0.700

     Mode symmetry, C_s (m)     point group:


     Atomic displacements:
     There are   21 irreducible representations

     Representation     1      1 modes -  To be done

     Representation     2      1 modes -  To be done

     Representation     3      1 modes -  To be done

     Representation     4      1 modes -  To be done

     Representation     5      1 modes -  To be done

     Representation     6      1 modes -  To be done

     Representation     7      1 modes -  To be done

     Representation     8      1 modes -  To be done

     Representation     9      1 modes -  To be done

     Representation    10      1 modes -  To be done

     Representation    11      1 modes -  To be done

     Representation    12      1 modes -  To be done

     Representation    13      1 modes -  To be done

     Representation    14      1 modes -  To be done

     Representation    15      1 modes -  To be done

     Representation    16      1 modes -  To be done

     Representation    17      1 modes -  To be done

     Representation    18      1 modes -  To be done

     Representation    19      1 modes -  To be done

     Representation    20      1 modes -  To be done

     Representation    21      1 modes -  To be done



     Alpha used in Ewald sum =   2.8000
     PHONON       :     44.45s CPU     53.12s WALL



     Representation #   1 mode #   1

     Self-consistent Calculation

      iter #   1 total cpu time :    63.4 secs   av.it.:   4.0
      thresh= 1.000E-02 alpha_mix =  0.700 |ddv_scf|^2 =  1.793E-06

      iter #   2 total cpu time :    98.1 secs   av.it.:   9.4
      thresh= 1.339E-04 alpha_mix =  0.700 |ddv_scf|^2 =  3.887E-06

      iter #   3 total cpu time :   130.8 secs   av.it.:   8.5
      thresh= 1.972E-04 alpha_mix =  0.700 |ddv_scf|^2 =  3.361E-09

      iter #   4 total cpu time :   160.8 secs   av.it.:   9.7
      thresh= 5.798E-06 alpha_mix =  0.700 |ddv_scf|^2 =  5.638E-10

      iter #   5 total cpu time :   191.8 secs   av.it.:   9.4
      thresh= 2.374E-06 alpha_mix =  0.700 |ddv_scf|^2 =  2.080E-11

      iter #   6 total cpu time :   222.8 secs   av.it.:   9.6
      thresh= 4.561E-07 alpha_mix =  0.700 |ddv_scf|^2 =  2.007E-12

      iter #   7 total cpu time :   255.3 secs   av.it.:   9.4
      thresh= 1.417E-07 alpha_mix =  0.700 |ddv_scf|^2 =  3.064E-14

      iter #   8 total cpu time :   284.7 secs   av.it.:   9.8
      thresh= 1.750E-08 alpha_mix =  0.700 |ddv_scf|^2 =  6.377E-15

      iter #   9 total cpu time :   315.1 secs   av.it.:   9.2
      thresh= 7.985E-09 alpha_mix =  0.700 |ddv_scf|^2 =  1.743E-15

      iter #  10 total cpu time :   345.5 secs   av.it.:   8.8
      thresh= 4.175E-09 alpha_mix =  0.700 |ddv_scf|^2 =  2.346E-17

     End of self-consistent calculation

     Convergence has been achieved 


     Representation #   2 mode #   2

     Self-consistent Calculation

      iter #   1 total cpu time :   365.6 secs   av.it.:   4.1
      thresh= 1.000E-02 alpha_mix =  0.700 |ddv_scf|^2 =  8.758E-07

      iter #   2 total cpu time :   391.5 secs   av.it.:   9.6
      thresh= 9.358E-05 alpha_mix =  0.700 |ddv_scf|^2 =  1.407E-06

      iter #   3 total cpu time :   410.9 secs   av.it.:   8.8
      thresh= 1.186E-04 alpha_mix =  0.700 |ddv_scf|^2 =  1.671E-08

      iter #   4 total cpu time :   432.9 secs   av.it.:   9.1
      thresh= 1.292E-05 alpha_mix =  0.700 |ddv_scf|^2 =  9.376E-10

      iter #   5 total cpu time :   452.1 secs   av.it.:   9.4
      thresh= 3.062E-06 alpha_mix =  0.700 |ddv_scf|^2 =  3.986E-11

      iter #   6 total cpu time :   473.5 secs   av.it.:   9.6
      thresh= 6.314E-07 alpha_mix =  0.700 |ddv_scf|^2 =  3.136E-12

      iter #   7 total cpu time :   497.9 secs   av.it.:   9.5
      thresh= 1.771E-07 alpha_mix =  0.700 |ddv_scf|^2 =  4.126E-14

      iter #   8 total cpu time :   521.1 secs   av.it.:   9.8
      thresh= 2.031E-08 alpha_mix =  0.700 |ddv_scf|^2 =  1.765E-15

      iter #   9 total cpu time :   548.3 secs   av.it.:   9.9
      thresh= 4.201E-09 alpha_mix =  0.700 |ddv_scf|^2 =  5.182E-16

      iter #  10 total cpu time :   574.2 secs   av.it.:   9.2
      thresh= 2.276E-09 alpha_mix =  0.700 |ddv_scf|^2 =  1.239E-16

      iter #  11 total cpu time :   599.1 secs   av.it.:   9.2
      thresh= 1.113E-09 alpha_mix =  0.700 |ddv_scf|^2 =  5.209E-18

     End of self-consistent calculation

     Convergence has been achieved 


     Representation #   3 mode #   3

     Self-consistent Calculation

      iter #   1 total cpu time :   617.5 secs   av.it.:   4.2
      thresh= 1.000E-02 alpha_mix =  0.700 |ddv_scf|^2 =  1.549E-06

      iter #   2 total cpu time :   636.8 secs   av.it.:   9.6
      thresh= 1.245E-04 alpha_mix =  0.700 |ddv_scf|^2 =  2.850E-06

      iter #   3 total cpu time :   659.1 secs   av.it.:   8.7
      thresh= 1.688E-04 alpha_mix =  0.700 |ddv_scf|^2 =  1.862E-08

      iter #   4 total cpu time :   685.1 secs   av.it.:   9.3
      thresh= 1.364E-05 alpha_mix =  0.700 |ddv_scf|^2 =  4.481E-10

      iter #   5 total cpu time :   707.7 secs   av.it.:   9.6
      thresh= 2.117E-06 alpha_mix =  0.700 |ddv_scf|^2 =  5.890E-11

      iter #   6 total cpu time :   731.1 secs   av.it.:   9.5
      thresh= 7.674E-07 alpha_mix =  0.700 |ddv_scf|^2 =  3.155E-12

      iter #   7 total cpu time :   752.7 secs   av.it.:   9.6
      thresh= 1.776E-07 alpha_mix =  0.700 |ddv_scf|^2 =  5.224E-14

      iter #   8 total cpu time :   778.0 secs   av.it.:   9.8
      thresh= 2.286E-08 alpha_mix =  0.700 |ddv_scf|^2 =  1.538E-15

      iter #   9 total cpu time :   805.0 secs   av.it.:   9.9
      thresh= 3.921E-09 alpha_mix =  0.700 |ddv_scf|^2 =  1.334E-16

      iter #  10 total cpu time :   833.1 secs   av.it.:   9.8
      thresh= 1.155E-09 alpha_mix =  0.700 |ddv_scf|^2 =  9.441E-17

     End of self-consistent calculation

     Convergence has been achieved 


     Representation #   4 mode #   4

     Self-consistent Calculation

      iter #   1 total cpu time :   852.5 secs   av.it.:   6.8
      thresh= 1.000E-02 alpha_mix =  0.700 |ddv_scf|^2 =  1.178E-04

      iter #   2 total cpu time :   872.5 secs   av.it.:   9.5
      thresh= 1.085E-03 alpha_mix =  0.700 |ddv_scf|^2 =  2.385E-04

      iter #   3 total cpu time :   891.5 secs   av.it.:   8.5
      thresh= 1.544E-03 alpha_mix =  0.700 |ddv_scf|^2 =  1.034E-06

      iter #   4 total cpu time :   914.0 secs   av.it.:   9.1
      thresh= 1.017E-04 alpha_mix =  0.700 |ddv_scf|^2 =  2.414E-08

      iter #   5 total cpu time :   935.8 secs   av.it.:   9.5
      thresh= 1.554E-05 alpha_mix =  0.700 |ddv_scf|^2 =  1.091E-09

      iter #   6 total cpu time :   957.2 secs   av.it.:   9.4
      thresh= 3.303E-06 alpha_mix =  0.700 |ddv_scf|^2 =  1.018E-10

      iter #   7 total cpu time :   979.8 secs   av.it.:   9.3
      thresh= 1.009E-06 alpha_mix =  0.700 |ddv_scf|^2 =  4.852E-12

      iter #   8 total cpu time :  1003.2 secs   av.it.:   9.7
      thresh= 2.203E-07 alpha_mix =  0.700 |ddv_scf|^2 =  2.221E-13

      iter #   9 total cpu time :  1027.4 secs   av.it.:   9.2
      thresh= 4.713E-08 alpha_mix =  0.700 |ddv_scf|^2 =  2.997E-14

      iter #  10 total cpu time :  1050.8 secs   av.it.:   8.8
      thresh= 1.731E-08 alpha_mix =  0.700 |ddv_scf|^2 =  4.304E-16

      iter #  11 total cpu time :  1075.6 secs   av.it.:   9.8
      thresh= 2.075E-09 alpha_mix =  0.700 |ddv_scf|^2 =  2.172E-16

      iter #  12 total cpu time :  1101.6 secs   av.it.:   9.4
      thresh= 1.474E-09 alpha_mix =  0.700 |ddv_scf|^2 =  5.778E-17

     End of self-consistent calculation

     Convergence has been achieved 


     Representation #   5 mode #   5

     Self-consistent Calculation

      iter #   1 total cpu time :  1119.8 secs   av.it.:   4.1
      thresh= 1.000E-02 alpha_mix =  0.700 |ddv_scf|^2 =  6.967E-07

      iter #   2 total cpu time :  1137.2 secs   av.it.:   9.7
      thresh= 8.347E-05 alpha_mix =  0.700 |ddv_scf|^2 =  6.348E-07

      iter #   3 total cpu time :  1158.7 secs   av.it.:   9.0
      thresh= 7.967E-05 alpha_mix =  0.700 |ddv_scf|^2 =  1.530E-08

      iter #   4 total cpu time :  1179.8 secs   av.it.:   8.8
      thresh= 1.237E-05 alpha_mix =  0.700 |ddv_scf|^2 =  7.715E-10

      iter #   5 total cpu time :  1201.5 secs   av.it.:   9.2
      thresh= 2.778E-06 alpha_mix =  0.700 |ddv_scf|^2 =  7.499E-11

      iter #   6 total cpu time :  1223.5 secs   av.it.:   9.3
      thresh= 8.660E-07 alpha_mix =  0.700 |ddv_scf|^2 =  1.043E-12

      iter #   7 total cpu time :  1246.3 secs   av.it.:   9.4
      thresh= 1.021E-07 alpha_mix =  0.700 |ddv_scf|^2 =  4.303E-14

      iter #   8 total cpu time :  1271.0 secs   av.it.:   9.8
      thresh= 2.074E-08 alpha_mix =  0.700 |ddv_scf|^2 =  2.595E-15

      iter #   9 total cpu time :  1293.7 secs   av.it.:   9.8
      thresh= 5.094E-09 alpha_mix =  0.700 |ddv_scf|^2 =  7.750E-16

      iter #  10 total cpu time :  1317.4 secs   av.it.:   9.0
      thresh= 2.784E-09 alpha_mix =  0.700 |ddv_scf|^2 =  1.172E-16

      iter #  11 total cpu time :  1342.4 secs   av.it.:   9.1
      thresh= 1.082E-09 alpha_mix =  0.700 |ddv_scf|^2 =  1.392E-17

     End of self-consistent calculation

     Convergence has been achieved 


     Representation #   6 mode #   6

     Self-consistent Calculation

      iter #   1 total cpu time :  1360.2 secs   av.it.:   4.2
      thresh= 1.000E-02 alpha_mix =  0.700 |ddv_scf|^2 =  9.126E-07

      iter #   2 total cpu time :  1382.0 secs   av.it.:   9.7
      thresh= 9.553E-05 alpha_mix =  0.700 |ddv_scf|^2 =  1.439E-06

      iter #   3 total cpu time :  1400.2 secs   av.it.:   8.8
      thresh= 1.199E-04 alpha_mix =  0.700 |ddv_scf|^2 =  2.105E-08

      iter #   4 total cpu time :  1421.7 secs   av.it.:   9.2
      thresh= 1.451E-05 alpha_mix =  0.700 |ddv_scf|^2 =  8.883E-10

      iter #   5 total cpu time :  1442.0 secs   av.it.:   9.4
      thresh= 2.980E-06 alpha_mix =  0.700 |ddv_scf|^2 =  5.749E-11

      iter #   6 total cpu time :  1462.5 secs   av.it.:   9.5
      thresh= 7.582E-07 alpha_mix =  0.700 |ddv_scf|^2 =  2.781E-12

      iter #   7 total cpu time :  1484.4 secs   av.it.:   9.5
      thresh= 1.668E-07 alpha_mix =  0.700 |ddv_scf|^2 =  3.519E-14

      iter #   8 total cpu time :  1506.9 secs   av.it.:   9.7
      thresh= 1.876E-08 alpha_mix =  0.700 |ddv_scf|^2 =  1.397E-15

      iter #   9 total cpu time :  1530.2 secs   av.it.:  10.0
      thresh= 3.738E-09 alpha_mix =  0.700 |ddv_scf|^2 =  1.647E-15

      iter #  10 total cpu time :  1552.7 secs   av.it.:   8.7
      thresh= 4.058E-09 alpha_mix =  0.700 |ddv_scf|^2 =  6.566E-17

     End of self-consistent calculation

     Convergence has been achieved 


     Representation #   7 mode #   7

     Self-consistent Calculation

      iter #   1 total cpu time :  1571.7 secs   av.it.:   4.1
      thresh= 1.000E-02 alpha_mix =  0.700 |ddv_scf|^2 =  3.916E-07

      iter #   2 total cpu time :  1592.2 secs   av.it.:   9.7
      thresh= 6.258E-05 alpha_mix =  0.700 |ddv_scf|^2 =  4.975E-07

      iter #   3 total cpu time :  1612.9 secs   av.it.:   8.8
      thresh= 7.054E-05 alpha_mix =  0.700 |ddv_scf|^2 =  1.246E-08

      iter #   4 total cpu time :  1634.7 secs   av.it.:   8.9
      thresh= 1.116E-05 alpha_mix =  0.700 |ddv_scf|^2 =  1.174E-09

      iter #   5 total cpu time :  1656.8 secs   av.it.:   9.1
      thresh= 3.427E-06 alpha_mix =  0.700 |ddv_scf|^2 =  2.134E-11

      iter #   6 total cpu time :  1680.3 secs   av.it.:   9.6
      thresh= 4.620E-07 alpha_mix =  0.700 |ddv_scf|^2 =  2.008E-12

      iter #   7 total cpu time :  1706.5 secs   av.it.:   9.5
      thresh= 1.417E-07 alpha_mix =  0.700 |ddv_scf|^2 =  4.421E-14

      iter #   8 total cpu time :  1730.6 secs   av.it.:   9.8
      thresh= 2.103E-08 alpha_mix =  0.700 |ddv_scf|^2 =  1.882E-15

      iter #   9 total cpu time :  1756.3 secs   av.it.:   9.9
      thresh= 4.338E-09 alpha_mix =  0.700 |ddv_scf|^2 =  6.240E-16

      iter #  10 total cpu time :  1782.8 secs   av.it.:   9.2
      thresh= 2.498E-09 alpha_mix =  0.700 |ddv_scf|^2 =  1.585E-16

      iter #  11 total cpu time :  1811.3 secs   av.it.:   9.0
      thresh= 1.259E-09 alpha_mix =  0.700 |ddv_scf|^2 =  3.640E-18

     End of self-consistent calculation

     Convergence has been achieved 


     Representation #   8 mode #   8

     Self-consistent Calculation

      iter #   1 total cpu time :  1831.1 secs   av.it.:   3.9
      thresh= 1.000E-02 alpha_mix =  0.700 |ddv_scf|^2 =  9.726E-07

      iter #   2 total cpu time :  1850.2 secs   av.it.:   9.5
      thresh= 9.862E-05 alpha_mix =  0.700 |ddv_scf|^2 =  1.252E-06

      iter #   3 total cpu time :  1873.1 secs   av.it.:   8.8
      thresh= 1.119E-04 alpha_mix =  0.700 |ddv_scf|^2 =  2.978E-08

      iter #   4 total cpu time :  1892.4 secs   av.it.:   8.9
      thresh= 1.726E-05 alpha_mix =  0.700 |ddv_scf|^2 =  7.715E-10

      iter #   5 total cpu time :  1913.9 secs   av.it.:   9.3
      thresh= 2.778E-06 alpha_mix =  0.700 |ddv_scf|^2 =  7.564E-11

      iter #   6 total cpu time :  1934.7 secs   av.it.:   9.1
      thresh= 8.697E-07 alpha_mix =  0.700 |ddv_scf|^2 =  3.798E-12

      iter #   7 total cpu time :  1958.4 secs   av.it.:   9.4
      thresh= 1.949E-07 alpha_mix =  0.700 |ddv_scf|^2 =  6.358E-14

      iter #   8 total cpu time :  1982.1 secs   av.it.:   9.6
      thresh= 2.522E-08 alpha_mix =  0.700 |ddv_scf|^2 =  1.269E-15

      iter #   9 total cpu time :  2008.5 secs   av.it.:   9.9
      thresh= 3.562E-09 alpha_mix =  0.700 |ddv_scf|^2 =  3.123E-16

      iter #  10 total cpu time :  2031.2 secs   av.it.:   9.5
      thresh= 1.767E-09 alpha_mix =  0.700 |ddv_scf|^2 =  2.352E-16

      iter #  11 total cpu time :  2055.6 secs   av.it.:   8.8
      thresh= 1.534E-09 alpha_mix =  0.700 |ddv_scf|^2 =  6.700E-18

     End of self-consistent calculation

     Convergence has been achieved 


     Representation #   9 mode #   9

     Self-consistent Calculation

      iter #   1 total cpu time :  2074.0 secs   av.it.:   6.7
      thresh= 1.000E-02 alpha_mix =  0.700 |ddv_scf|^2 =  4.954E-05

      iter #   2 total cpu time :  2093.1 secs   av.it.:   9.6
      thresh= 7.038E-04 alpha_mix =  0.700 |ddv_scf|^2 =  8.115E-05

      iter #   3 total cpu time :  2111.0 secs   av.it.:   8.6
      thresh= 9.008E-04 alpha_mix =  0.700 |ddv_scf|^2 =  1.217E-06

      iter #   4 total cpu time :  2132.3 secs   av.it.:   9.1
      thresh= 1.103E-04 alpha_mix =  0.700 |ddv_scf|^2 =  1.116E-08

      iter #   5 total cpu time :  2153.3 secs   av.it.:   9.6
      thresh= 1.056E-05 alpha_mix =  0.700 |ddv_scf|^2 =  5.049E-10

      iter #   6 total cpu time :  2181.8 secs   av.it.:   9.5
      thresh= 2.247E-06 alpha_mix =  0.700 |ddv_scf|^2 =  5.501E-11

      iter #   7 total cpu time :  2208.9 secs   av.it.:   9.6
      thresh= 7.417E-07 alpha_mix =  0.700 |ddv_scf|^2 =  1.408E-11

      iter #   8 total cpu time :  2236.1 secs   av.it.:   9.4
      thresh= 3.752E-07 alpha_mix =  0.700 |ddv_scf|^2 =  1.826E-13

      iter #   9 total cpu time :  2267.9 secs   av.it.:   9.4
      thresh= 4.273E-08 alpha_mix =  0.700 |ddv_scf|^2 =  4.788E-14

      iter #  10 total cpu time :  2296.8 secs   av.it.:   8.7
      thresh= 2.188E-08 alpha_mix =  0.700 |ddv_scf|^2 =  8.188E-16

      iter #  11 total cpu time :  2329.3 secs   av.it.:   9.7
      thresh= 2.862E-09 alpha_mix =  0.700 |ddv_scf|^2 =  2.735E-16

      iter #  12 total cpu time :  2361.2 secs   av.it.:   9.5
      thresh= 1.654E-09 alpha_mix =  0.700 |ddv_scf|^2 =  1.089E-16

      iter #  13 total cpu time :  2397.1 secs   av.it.:   9.0
      thresh= 1.044E-09 alpha_mix =  0.700 |ddv_scf|^2 =  3.153E-18

     End of self-consistent calculation

     Convergence has been achieved 


     Representation #  10 mode #  10

     Self-consistent Calculation

      iter #   1 total cpu time :  2419.5 secs   av.it.:   4.2
      thresh= 1.000E-02 alpha_mix =  0.700 |ddv_scf|^2 =  1.355E-06

      iter #   2 total cpu time :  2440.0 secs   av.it.:   9.6
      thresh= 1.164E-04 alpha_mix =  0.700 |ddv_scf|^2 =  2.009E-06

      iter #   3 total cpu time :  2462.3 secs   av.it.:   8.8
      thresh= 1.417E-04 alpha_mix =  0.700 |ddv_scf|^2 =  3.160E-08

      iter #   4 total cpu time :  2487.4 secs   av.it.:   9.0
      thresh= 1.778E-05 alpha_mix =  0.700 |ddv_scf|^2 =  8.510E-10

      iter #   5 total cpu time :  2512.0 secs   av.it.:   9.4
      thresh= 2.917E-06 alpha_mix =  0.700 |ddv_scf|^2 =  4.420E-11

      iter #   6 total cpu time :  2539.0 secs   av.it.:   9.6
      thresh= 6.648E-07 alpha_mix =  0.700 |ddv_scf|^2 =  3.405E-12

      iter #   7 total cpu time :  2566.2 secs   av.it.:   9.5
      thresh= 1.845E-07 alpha_mix =  0.700 |ddv_scf|^2 =  3.494E-14

      iter #   8 total cpu time :  2597.3 secs   av.it.:   9.8
      thresh= 1.869E-08 alpha_mix =  0.700 |ddv_scf|^2 =  1.104E-15

      iter #   9 total cpu time :  2625.3 secs   av.it.:   9.9
      thresh= 3.323E-09 alpha_mix =  0.700 |ddv_scf|^2 =  1.732E-16

      iter #  10 total cpu time :  2650.2 secs   av.it.:   9.7
      thresh= 1.316E-09 alpha_mix =  0.700 |ddv_scf|^2 =  1.420E-16

      iter #  11 total cpu time :  2681.7 secs   av.it.:   8.8
      thresh= 1.192E-09 alpha_mix =  0.700 |ddv_scf|^2 =  4.030E-18

     End of self-consistent calculation

     Convergence has been achieved 


     Representation #  11 mode #  11

     Self-consistent Calculation

      iter #   1 total cpu time :  2704.8 secs   av.it.:   4.2
      thresh= 1.000E-02 alpha_mix =  0.700 |ddv_scf|^2 =  1.507E-06

      iter #   2 total cpu time :  2725.7 secs   av.it.:   9.6
      thresh= 1.228E-04 alpha_mix =  0.700 |ddv_scf|^2 =  2.510E-06

      iter #   3 total cpu time :  2750.6 secs   av.it.:   8.8
      thresh= 1.584E-04 alpha_mix =  0.700 |ddv_scf|^2 =  2.800E-08

      iter #   4 total cpu time :  2778.5 secs   av.it.:   9.1
      thresh= 1.673E-05 alpha_mix =  0.700 |ddv_scf|^2 =  6.286E-10

      iter #   5 total cpu time :  2806.4 secs   av.it.:   9.5
      thresh= 2.507E-06 alpha_mix =  0.700 |ddv_scf|^2 =  8.679E-11

      iter #   6 total cpu time :  2837.0 secs   av.it.:   9.5
      thresh= 9.316E-07 alpha_mix =  0.700 |ddv_scf|^2 =  1.874E-12

      iter #   7 total cpu time :  2866.7 secs   av.it.:   9.7
      thresh= 1.369E-07 alpha_mix =  0.700 |ddv_scf|^2 =  6.884E-14

      iter #   8 total cpu time :  2897.2 secs   av.it.:   9.8
      thresh= 2.624E-08 alpha_mix =  0.700 |ddv_scf|^2 =  2.004E-15

      iter #   9 total cpu time :  2927.2 secs   av.it.:   9.8
      thresh= 4.477E-09 alpha_mix =  0.700 |ddv_scf|^2 =  1.446E-16

      iter #  10 total cpu time :  2958.6 secs   av.it.:   9.8
      thresh= 1.203E-09 alpha_mix =  0.700 |ddv_scf|^2 =  1.305E-16

      iter #  11 total cpu time :  2992.3 secs   av.it.:   9.0
      thresh= 1.142E-09 alpha_mix =  0.700 |ddv_scf|^2 =  5.454E-18

     End of self-consistent calculation

     Convergence has been achieved 


     Representation #  12 mode #  12

     Self-consistent Calculation

      iter #   1 total cpu time :  3012.6 secs   av.it.:   3.7
      thresh= 1.000E-02 alpha_mix =  0.700 |ddv_scf|^2 =  2.246E-07

      iter #   2 total cpu time :  3033.5 secs   av.it.:   9.4
      thresh= 4.739E-05 alpha_mix =  0.700 |ddv_scf|^2 =  1.959E-07

      iter #   3 total cpu time :  3057.5 secs   av.it.:   8.7
      thresh= 4.427E-05 alpha_mix =  0.700 |ddv_scf|^2 =  3.874E-10

      iter #   4 total cpu time :  3084.6 secs   av.it.:   9.2
      thresh= 1.968E-06 alpha_mix =  0.700 |ddv_scf|^2 =  1.201E-11

      iter #   5 total cpu time :  3114.7 secs   av.it.:   9.4
      thresh= 3.465E-07 alpha_mix =  0.700 |ddv_scf|^2 =  3.145E-13

      iter #   6 total cpu time :  3146.5 secs   av.it.:   9.5
      thresh= 5.608E-08 alpha_mix =  0.700 |ddv_scf|^2 =  7.943E-15

      iter #   7 total cpu time :  3174.6 secs   av.it.:   9.5
      thresh= 8.912E-09 alpha_mix =  0.700 |ddv_scf|^2 =  1.401E-16

      iter #   8 total cpu time :  3204.8 secs   av.it.:   9.5
      thresh= 1.184E-09 alpha_mix =  0.700 |ddv_scf|^2 =  5.683E-18

     End of self-consistent calculation

     Convergence has been achieved 


     Representation #  13 mode #  13

     Self-consistent Calculation

      iter #   1 total cpu time :  3225.7 secs   av.it.:   4.0
      thresh= 1.000E-02 alpha_mix =  0.700 |ddv_scf|^2 =  4.927E-07

      iter #   2 total cpu time :  3247.2 secs   av.it.:   9.4
      thresh= 7.019E-05 alpha_mix =  0.700 |ddv_scf|^2 =  4.399E-07

      iter #   3 total cpu time :  3269.3 secs   av.it.:   8.7
      thresh= 6.632E-05 alpha_mix =  0.700 |ddv_scf|^2 =  5.190E-10

      iter #   4 total cpu time :  3292.5 secs   av.it.:   9.3
      thresh= 2.278E-06 alpha_mix =  0.700 |ddv_scf|^2 =  5.834E-12

      iter #   5 total cpu time :  3318.4 secs   av.it.:   9.5
      thresh= 2.415E-07 alpha_mix =  0.700 |ddv_scf|^2 =  1.829E-13

      iter #   6 total cpu time :  3343.4 secs   av.it.:   9.7
      thresh= 4.276E-08 alpha_mix =  0.700 |ddv_scf|^2 =  2.891E-15

      iter #   7 total cpu time :  3369.9 secs   av.it.:   9.7
      thresh= 5.377E-09 alpha_mix =  0.700 |ddv_scf|^2 =  9.736E-17

     End of self-consistent calculation

     Convergence has been achieved 


     Representation #  14 mode #  14

     Self-consistent Calculation

      iter #   1 total cpu time :  3392.6 secs   av.it.:   3.9
      thresh= 1.000E-02 alpha_mix =  0.700 |ddv_scf|^2 =  3.478E-07

      iter #   2 total cpu time :  3414.6 secs   av.it.:   9.4
      thresh= 5.897E-05 alpha_mix =  0.700 |ddv_scf|^2 =  3.106E-07

      iter #   3 total cpu time :  3443.6 secs   av.it.:   8.7
      thresh= 5.573E-05 alpha_mix =  0.700 |ddv_scf|^2 =  4.473E-10

      iter #   4 total cpu time :  3469.0 secs   av.it.:   9.3
      thresh= 2.115E-06 alpha_mix =  0.700 |ddv_scf|^2 =  7.298E-12

      iter #   5 total cpu time :  3497.3 secs   av.it.:   9.2
      thresh= 2.701E-07 alpha_mix =  0.700 |ddv_scf|^2 =  1.434E-13

      iter #   6 total cpu time :  3528.0 secs   av.it.:   9.6
      thresh= 3.787E-08 alpha_mix =  0.700 |ddv_scf|^2 =  4.156E-15

      iter #   7 total cpu time :  3554.7 secs   av.it.:   9.8
      thresh= 6.447E-09 alpha_mix =  0.700 |ddv_scf|^2 =  1.166E-16

      iter #   8 total cpu time :  3584.5 secs   av.it.:   9.6
      thresh= 1.080E-09 alpha_mix =  0.700 |ddv_scf|^2 =  4.136E-18

     End of self-consistent calculation

     Convergence has been achieved 


     Representation #  15 mode #  15

     Self-consistent Calculation

      iter #   1 total cpu time :  3605.0 secs   av.it.:   3.7
      thresh= 1.000E-02 alpha_mix =  0.700 |ddv_scf|^2 =  7.481E-08

      iter #   2 total cpu time :  3630.5 secs   av.it.:   9.4
      thresh= 2.735E-05 alpha_mix =  0.700 |ddv_scf|^2 =  3.911E-08

      iter #   3 total cpu time :  3658.5 secs   av.it.:   8.8
      thresh= 1.978E-05 alpha_mix =  0.700 |ddv_scf|^2 =  1.477E-09

      iter #   4 total cpu time :  3685.7 secs   av.it.:   9.0
      thresh= 3.843E-06 alpha_mix =  0.700 |ddv_scf|^2 =  1.546E-11

      iter #   5 total cpu time :  3717.2 secs   av.it.:   9.6
      thresh= 3.932E-07 alpha_mix =  0.700 |ddv_scf|^2 =  8.313E-13

      iter #   6 total cpu time :  3747.1 secs   av.it.:   9.3
      thresh= 9.117E-08 alpha_mix =  0.700 |ddv_scf|^2 =  5.635E-15

      iter #   7 total cpu time :  3777.7 secs   av.it.:   9.4
      thresh= 7.506E-09 alpha_mix =  0.700 |ddv_scf|^2 =  1.833E-16

      iter #   8 total cpu time :  3809.1 secs   av.it.:   9.4
      thresh= 1.354E-09 alpha_mix =  0.700 |ddv_scf|^2 =  6.069E-18

     End of self-consistent calculation

     Convergence has been achieved 


     Representation #  16 mode #  16

     Self-consistent Calculation

      iter #   1 total cpu time :  3831.5 secs   av.it.:   6.6
      thresh= 1.000E-02 alpha_mix =  0.700 |ddv_scf|^2 =  5.099E-05

      iter #   2 total cpu time :  3855.6 secs   av.it.:   9.5
      thresh= 7.141E-04 alpha_mix =  0.700 |ddv_scf|^2 =  4.817E-05

      iter #   3 total cpu time :  3877.2 secs   av.it.:   8.7
      thresh= 6.940E-04 alpha_mix =  0.700 |ddv_scf|^2 =  2.249E-08

      iter #   4 total cpu time :  3904.0 secs   av.it.:   9.8
      thresh= 1.500E-05 alpha_mix =  0.700 |ddv_scf|^2 =  1.367E-09

      iter #   5 total cpu time :  3932.0 secs   av.it.:   9.0
      thresh= 3.698E-06 alpha_mix =  0.700 |ddv_scf|^2 =  3.767E-12

      iter #   6 total cpu time :  3962.2 secs   av.it.:   9.2
      thresh= 1.941E-07 alpha_mix =  0.700 |ddv_scf|^2 =  1.289E-13

      iter #   7 total cpu time :  3990.6 secs   av.it.:   9.0
      thresh= 3.590E-08 alpha_mix =  0.700 |ddv_scf|^2 =  1.155E-15

      iter #   8 total cpu time :  4021.2 secs   av.it.:   9.2
      thresh= 3.398E-09 alpha_mix =  0.700 |ddv_scf|^2 =  1.236E-17

     End of self-consistent calculation

     Convergence has been achieved 


     Representation #  17 mode #  17

     Self-consistent Calculation

      iter #   1 total cpu time :  4045.6 secs   av.it.:   3.8
      thresh= 1.000E-02 alpha_mix =  0.700 |ddv_scf|^2 =  2.742E-07

      iter #   2 total cpu time :  4069.5 secs   av.it.:   9.4
      thresh= 5.236E-05 alpha_mix =  0.700 |ddv_scf|^2 =  2.420E-07

      iter #   3 total cpu time :  4092.6 secs   av.it.:   8.7
      thresh= 4.919E-05 alpha_mix =  0.700 |ddv_scf|^2 =  3.935E-10

      iter #   4 total cpu time :  4122.3 secs   av.it.:   9.2
      thresh= 1.984E-06 alpha_mix =  0.700 |ddv_scf|^2 =  6.727E-12

      iter #   5 total cpu time :  4148.7 secs   av.it.:   9.2
      thresh= 2.594E-07 alpha_mix =  0.700 |ddv_scf|^2 =  8.361E-14

      iter #   6 total cpu time :  4174.5 secs   av.it.:   9.7
      thresh= 2.892E-08 alpha_mix =  0.700 |ddv_scf|^2 =  3.542E-15

      iter #   7 total cpu time :  4201.6 secs   av.it.:   9.8
      thresh= 5.952E-09 alpha_mix =  0.700 |ddv_scf|^2 =  1.012E-16

      iter #   8 total cpu time :  4227.7 secs   av.it.:   9.6
      thresh= 1.006E-09 alpha_mix =  0.700 |ddv_scf|^2 =  4.038E-18

     End of self-consistent calculation

     Convergence has been achieved 


     Representation #  18 mode #  18

     Self-consistent Calculation

      iter #   1 total cpu time :  4250.4 secs   av.it.:   3.5
      thresh= 1.000E-02 alpha_mix =  0.700 |ddv_scf|^2 =  1.064E-07

      iter #   2 total cpu time :  4277.6 secs   av.it.:   9.4
      thresh= 3.263E-05 alpha_mix =  0.700 |ddv_scf|^2 =  8.968E-08

      iter #   3 total cpu time :  4304.1 secs   av.it.:   8.7
      thresh= 2.995E-05 alpha_mix =  0.700 |ddv_scf|^2 =  3.479E-10

      iter #   4 total cpu time :  4330.3 secs   av.it.:   9.1
      thresh= 1.865E-06 alpha_mix =  0.700 |ddv_scf|^2 =  6.796E-12

      iter #   5 total cpu time :  4366.6 secs   av.it.:   9.5
      thresh= 2.607E-07 alpha_mix =  0.700 |ddv_scf|^2 =  2.927E-13

      iter #   6 total cpu time :  4399.0 secs   av.it.:   9.6
      thresh= 5.410E-08 alpha_mix =  0.700 |ddv_scf|^2 =  3.321E-15

      iter #   7 total cpu time :  4428.1 secs   av.it.:   9.5
      thresh= 5.763E-09 alpha_mix =  0.700 |ddv_scf|^2 =  7.824E-17

     End of self-consistent calculation

     Convergence has been achieved 


     Representation #  19 mode #  19

     Self-consistent Calculation

      iter #   1 total cpu time :  4450.9 secs   av.it.:   3.8
      thresh= 1.000E-02 alpha_mix =  0.700 |ddv_scf|^2 =  2.523E-07

      iter #   2 total cpu time :  4473.5 secs   av.it.:   9.4
      thresh= 5.023E-05 alpha_mix =  0.700 |ddv_scf|^2 =  2.153E-07

      iter #   3 total cpu time :  4499.0 secs   av.it.:   8.7
      thresh= 4.640E-05 alpha_mix =  0.700 |ddv_scf|^2 =  5.257E-10

      iter #   4 total cpu time :  4525.7 secs   av.it.:   9.4
      thresh= 2.293E-06 alpha_mix =  0.700 |ddv_scf|^2 =  1.238E-11

      iter #   5 total cpu time :  4553.1 secs   av.it.:   9.5
      thresh= 3.519E-07 alpha_mix =  0.700 |ddv_scf|^2 =  2.949E-13

      iter #   6 total cpu time :  4578.2 secs   av.it.:   9.7
      thresh= 5.431E-08 alpha_mix =  0.700 |ddv_scf|^2 =  9.400E-15

      iter #   7 total cpu time :  4604.0 secs   av.it.:   9.7
      thresh= 9.696E-09 alpha_mix =  0.700 |ddv_scf|^2 =  2.044E-16

      iter #   8 total cpu time :  4632.1 secs   av.it.:   9.5
      thresh= 1.430E-09 alpha_mix =  0.700 |ddv_scf|^2 =  5.398E-18

     End of self-consistent calculation

     Convergence has been achieved 


     Representation #  20 mode #  20

     Self-consistent Calculation

      iter #   1 total cpu time :  4652.9 secs   av.it.:   3.7
      thresh= 1.000E-02 alpha_mix =  0.700 |ddv_scf|^2 =  1.346E-07

      iter #   2 total cpu time :  4679.1 secs   av.it.:   9.5
      thresh= 3.669E-05 alpha_mix =  0.700 |ddv_scf|^2 =  1.063E-07

      iter #   3 total cpu time :  4706.2 secs   av.it.:   8.7
      thresh= 3.260E-05 alpha_mix =  0.700 |ddv_scf|^2 =  5.475E-10

      iter #   4 total cpu time :  4737.9 secs   av.it.:   9.2
      thresh= 2.340E-06 alpha_mix =  0.700 |ddv_scf|^2 =  1.350E-11

      iter #   5 total cpu time :  4762.4 secs   av.it.:   9.4
      thresh= 3.674E-07 alpha_mix =  0.700 |ddv_scf|^2 =  2.112E-13

      iter #   6 total cpu time :  4791.7 secs   av.it.:   9.7
      thresh= 4.596E-08 alpha_mix =  0.700 |ddv_scf|^2 =  7.012E-15

      iter #   7 total cpu time :  4824.0 secs   av.it.:   9.6
      thresh= 8.374E-09 alpha_mix =  0.700 |ddv_scf|^2 =  1.915E-16

      iter #   8 total cpu time :  4850.9 secs   av.it.:   9.5
      thresh= 1.384E-09 alpha_mix =  0.700 |ddv_scf|^2 =  7.994E-18

     End of self-consistent calculation

     Convergence has been achieved 


     Representation #  21 mode #  21

     Self-consistent Calculation

      iter #   1 total cpu time :  4873.5 secs   av.it.:   3.9
      thresh= 1.000E-02 alpha_mix =  0.700 |ddv_scf|^2 =  2.346E-07

      iter #   2 total cpu time :  4895.6 secs   av.it.:   9.4
      thresh= 4.843E-05 alpha_mix =  0.700 |ddv_scf|^2 =  1.971E-07

      iter #   3 total cpu time :  4918.7 secs   av.it.:   8.7
      thresh= 4.440E-05 alpha_mix =  0.700 |ddv_scf|^2 =  5.865E-10

      iter #   4 total cpu time :  4947.7 secs   av.it.:   9.3
      thresh= 2.422E-06 alpha_mix =  0.700 |ddv_scf|^2 =  7.133E-12

      iter #   5 total cpu time :  4977.6 secs   av.it.:   9.5
      thresh= 2.671E-07 alpha_mix =  0.700 |ddv_scf|^2 =  2.513E-13

      iter #   6 total cpu time :  5008.4 secs   av.it.:   9.7
      thresh= 5.013E-08 alpha_mix =  0.700 |ddv_scf|^2 =  3.244E-15

      iter #   7 total cpu time :  5043.1 secs   av.it.:   9.6
      thresh= 5.695E-09 alpha_mix =  0.700 |ddv_scf|^2 =  1.055E-16

      iter #   8 total cpu time :  5074.3 secs   av.it.:   9.5
      thresh= 1.027E-09 alpha_mix =  0.700 |ddv_scf|^2 =  7.854E-18

     End of self-consistent calculation

     Convergence has been achieved 
 
     Number of q in the star =   24
     List of q in the star:
          1   0.433012700   0.324759500   0.324759500
          2  -0.433012700   0.324759500  -0.324759500
          3   0.433012700  -0.324759500  -0.324759500
          4   0.324759500   0.433012700  -0.324759500
          5  -0.324759500  -0.433012700  -0.324759500
          6   0.324759500  -0.433012700   0.324759500
          7  -0.324759500   0.433012700   0.324759500
          8   0.324759500  -0.324759500   0.433012700
          9  -0.324759500  -0.324759500  -0.433012700
         10   0.324759500   0.324759500  -0.433012700
         11  -0.324759500   0.324759500   0.433012700
         12  -0.433012700   0.324759500   0.324759500
         13  -0.433012700  -0.324759500  -0.324759500
         14   0.433012700   0.324759500  -0.324759500
         15   0.433012700  -0.324759500   0.324759500
         16   0.324759500   0.324759500   0.433012700
         17  -0.324759500   0.324759500  -0.433012700
         18   0.324759500  -0.324759500  -0.433012700
         19  -0.324759500  -0.324759500   0.433012700
         20   0.324759500   0.433012700   0.324759500
         21   0.324759500  -0.433012700  -0.324759500
         22  -0.324759500  -0.433012700   0.324759500
         23  -0.324759500   0.433012700  -0.324759500
         24  -0.433012700  -0.324759500   0.324759500

     Diagonalizing the dynamical matrix

     q = (    0.433012700   0.324759500   0.324759500 ) 

 **************************************************************************
     freq (    1) =       9.795056 [THz] =     326.727885 [cm-1]
     freq (    2) =      10.176472 [THz] =     339.450563 [cm-1]
     freq (    3) =      11.774139 [THz] =     392.743009 [cm-1]
     freq (    4) =      29.332635 [THz] =     978.431397 [cm-1]
     freq (    5) =      29.838796 [THz] =     995.315084 [cm-1]
     freq (    6) =      32.533473 [THz] =    1085.199842 [cm-1]
     freq (    7) =      33.087916 [THz] =    1103.694065 [cm-1]
     freq (    8) =      36.036696 [THz] =    1202.054786 [cm-1]
     freq (    9) =      38.006648 [THz] =    1267.765314 [cm-1]
     freq (   10) =      39.395806 [THz] =    1314.102648 [cm-1]
     freq (   11) =      39.884257 [THz] =    1330.395621 [cm-1]
     freq (   12) =      42.696445 [THz] =    1424.200113 [cm-1]
     freq (   13) =      43.042151 [THz] =    1435.731622 [cm-1]
     freq (   14) =      43.362536 [THz] =    1446.418515 [cm-1]
     freq (   15) =      45.240799 [THz] =    1509.070634 [cm-1]
     freq (   16) =      45.969147 [THz] =    1533.365709 [cm-1]
     freq (   17) =      46.772322 [THz] =    1560.156739 [cm-1]
     freq (   18) =      48.264403 [THz] =    1609.927192 [cm-1]
     freq (   19) =      49.020928 [THz] =    1635.162164 [cm-1]
     freq (   20) =      51.858696 [THz] =    1729.819903 [cm-1]
     freq (   21) =      51.967196 [THz] =    1733.439074 [cm-1]
 **************************************************************************

     Mode symmetry, C_s (m)     point group:

     freq (   1-   1) =        326.7  [cm-1]   --> A''                
     freq (   2-   2) =        339.5  [cm-1]   --> A'                 
     freq (   3-   3) =        392.7  [cm-1]   --> A'                 
     freq (   4-   4) =        978.4  [cm-1]   --> A''                
     freq (   5-   5) =        995.3  [cm-1]   --> A'                 
     freq (   6-   6) =       1085.2  [cm-1]   --> A'                 
     freq (   7-   7) =       1103.7  [cm-1]   --> A''                
     freq (   8-   8) =       1202.1  [cm-1]   --> A'                 
     freq (   9-   9) =       1267.8  [cm-1]   --> A''                
     freq (  10-  10) =       1314.1  [cm-1]   --> A'                 
     freq (  11-  11) =       1330.4  [cm-1]   --> A''                
     freq (  12-  12) =       1424.2  [cm-1]   --> A''                
     freq (  13-  13) =       1435.7  [cm-1]   --> A''                
     freq (  14-  14) =       1446.4  [cm-1]   --> A'                 
     freq (  15-  15) =       1509.1  [cm-1]   --> A'                 
     freq (  16-  16) =       1533.4  [cm-1]   --> A'                 
     freq (  17-  17) =       1560.2  [cm-1]   --> A''                
     freq (  18-  18) =       1609.9  [cm-1]   --> A''                
     freq (  19-  19) =       1635.2  [cm-1]   --> A'                 
     freq (  20-  20) =       1729.8  [cm-1]   --> A'                 
     freq (  21-  21) =       1733.4  [cm-1]   --> A''                
     electron-phonon interaction  ...

     Gaussian Broadening:   0.005 Ry, ngauss=   0
     DOS =  1.900675 states/spin/Ry/Unit Cell at Ef= 17.155196 eV
     lambda(    1)=  0.1599   gamma=   27.84 GHz
     lambda(    2)=  0.0213   gamma=    4.01 GHz
     lambda(    3)=  0.0155   gamma=    3.90 GHz
     lambda(    4)=  0.6235   gamma=  973.68 GHz
     lambda(    5)=  0.4314   gamma=  697.19 GHz
     lambda(    6)=  0.1924   gamma=  369.69 GHz
     lambda(    7)=  0.0470   gamma=   93.48 GHz
     lambda(    8)=  0.0143   gamma=   33.78 GHz
     lambda(    9)=  0.0993   gamma=  260.28 GHz
     lambda(   10)=  0.0122   gamma=   34.35 GHz
     lambda(   11)=  0.0109   gamma=   31.61 GHz
     lambda(   12)=  0.0747   gamma=  247.13 GHz
     lambda(   13)=  0.0097   gamma=   32.48 GHz
     lambda(   14)=  0.0025   gamma=    8.40 GHz
     lambda(   15)=  0.0247   gamma=   91.68 GHz
     lambda(   16)=  0.0136   gamma=   52.28 GHz
     lambda(   17)=  0.0038   gamma=   15.03 GHz
     lambda(   18)=  0.0165   gamma=   69.59 GHz
     lambda(   19)=  0.0055   gamma=   23.91 GHz
     lambda(   20)=  0.0053   gamma=   25.91 GHz
     lambda(   21)=  0.0083   gamma=   40.58 GHz
     Gaussian Broadening:   0.010 Ry, ngauss=   0
     DOS =  2.130656 states/spin/Ry/Unit Cell at Ef= 17.149400 eV
     lambda(    1)=  0.1416   gamma=   27.64 GHz
     lambda(    2)=  0.0281   gamma=    5.93 GHz
     lambda(    3)=  0.0174   gamma=    4.91 GHz
     lambda(    4)=  0.4807   gamma=  841.49 GHz
     lambda(    5)=  0.4172   gamma=  755.73 GHz
     lambda(    6)=  0.2543   gamma=  547.74 GHz
     lambda(    7)=  0.1315   gamma=  292.85 GHz
     lambda(    8)=  0.0424   gamma=  111.96 GHz
     lambda(    9)=  0.0650   gamma=  191.11 GHz
     lambda(   10)=  0.0212   gamma=   66.96 GHz
     lambda(   11)=  0.0156   gamma=   50.33 GHz
     lambda(   12)=  0.0438   gamma=  162.42 GHz
     lambda(   13)=  0.0070   gamma=   26.42 GHz
     lambda(   14)=  0.0040   gamma=   15.13 GHz
     lambda(   15)=  0.0403   gamma=  167.97 GHz
     lambda(   16)=  0.0210   gamma=   90.47 GHz
     lambda(   17)=  0.0043   gamma=   18.97 GHz
     lambda(   18)=  0.0141   gamma=   66.63 GHz
     lambda(   19)=  0.0126   gamma=   61.69 GHz
     lambda(   20)=  0.0139   gamma=   76.09 GHz
     lambda(   21)=  0.0123   gamma=   67.44 GHz
     Gaussian Broadening:   0.015 Ry, ngauss=   0
     DOS =  2.235086 states/spin/Ry/Unit Cell at Ef= 17.146382 eV
     lambda(    1)=  0.1534   gamma=   31.41 GHz
     lambda(    2)=  0.0299   gamma=    6.61 GHz
     lambda(    3)=  0.0194   gamma=    5.73 GHz
     lambda(    4)=  0.4854   gamma=  891.37 GHz
     lambda(    5)=  0.4097   gamma=  778.50 GHz
     lambda(    6)=  0.3028   gamma=  684.15 GHz
     lambda(    7)=  0.1749   gamma=  408.79 GHz
     lambda(    8)=  0.0516   gamma=  143.07 GHz
     lambda(    9)=  0.0626   gamma=  192.86 GHz
     lambda(   10)=  0.0274   gamma=   90.91 GHz
     lambda(   11)=  0.0199   gamma=   67.65 GHz
     lambda(   12)=  0.0416   gamma=  161.79 GHz
     lambda(   13)=  0.0074   gamma=   29.37 GHz
     lambda(   14)=  0.0041   gamma=   16.26 GHz
     lambda(   15)=  0.0474   gamma=  207.18 GHz
     lambda(   16)=  0.0252   gamma=  113.65 GHz
     lambda(   17)=  0.0052   gamma=   24.41 GHz
     lambda(   18)=  0.0154   gamma=   76.62 GHz
     lambda(   19)=  0.0155   gamma=   79.74 GHz
     lambda(   20)=  0.0193   gamma=  110.58 GHz
     lambda(   21)=  0.0162   gamma=   93.29 GHz
     Gaussian Broadening:   0.020 Ry, ngauss=   0
     DOS =  2.290454 states/spin/Ry/Unit Cell at Ef= 17.145317 eV
     lambda(    1)=  0.1604   gamma=   33.66 GHz
     lambda(    2)=  0.0310   gamma=    7.02 GHz
     lambda(    3)=  0.0209   gamma=    6.33 GHz
     lambda(    4)=  0.4947   gamma=  930.94 GHz
     lambda(    5)=  0.4137   gamma=  805.67 GHz
     lambda(    6)=  0.3255   gamma=  753.56 GHz
     lambda(    7)=  0.2037   gamma=  487.87 GHz
     lambda(    8)=  0.0601   gamma=  170.68 GHz
     lambda(    9)=  0.0632   gamma=  199.70 GHz
     lambda(   10)=  0.0306   gamma=  103.85 GHz
     lambda(   11)=  0.0223   gamma=   77.54 GHz
     lambda(   12)=  0.0427   gamma=  170.40 GHz
     lambda(   13)=  0.0078   gamma=   31.71 GHz
     lambda(   14)=  0.0042   gamma=   17.32 GHz
     lambda(   15)=  0.0571   gamma=  255.64 GHz
     lambda(   16)=  0.0304   gamma=  140.53 GHz
     lambda(   17)=  0.0057   gamma=   27.21 GHz
     lambda(   18)=  0.0162   gamma=   82.49 GHz
     lambda(   19)=  0.0169   gamma=   88.89 GHz
     lambda(   20)=  0.0216   gamma=  126.93 GHz
     lambda(   21)=  0.0179   gamma=  105.83 GHz
     Gaussian Broadening:   0.025 Ry, ngauss=   0
     DOS =  2.332190 states/spin/Ry/Unit Cell at Ef= 17.144758 eV
     lambda(    1)=  0.1628   gamma=   34.78 GHz
     lambda(    2)=  0.0318   gamma=    7.34 GHz
     lambda(    3)=  0.0219   gamma=    6.78 GHz
     lambda(    4)=  0.4978   gamma=  953.87 GHz
     lambda(    5)=  0.4235   gamma=  839.82 GHz
     lambda(    6)=  0.3353   gamma=  790.49 GHz
     lambda(    7)=  0.2215   gamma=  540.08 GHz
     lambda(    8)=  0.0672   gamma=  194.32 GHz
     lambda(    9)=  0.0639   gamma=  205.62 GHz
     lambda(   10)=  0.0322   gamma=  111.40 GHz
     lambda(   11)=  0.0236   gamma=   83.60 GHz
     lambda(   12)=  0.0438   gamma=  178.02 GHz
     lambda(   13)=  0.0081   gamma=   33.53 GHz
     lambda(   14)=  0.0044   gamma=   18.42 GHz
     lambda(   15)=  0.0650   gamma=  296.35 GHz
     lambda(   16)=  0.0346   gamma=  162.93 GHz
     lambda(   17)=  0.0059   gamma=   28.90 GHz
     lambda(   18)=  0.0167   gamma=   86.74 GHz
     lambda(   19)=  0.0178   gamma=   95.13 GHz
     lambda(   20)=  0.0228   gamma=  136.71 GHz
     lambda(   21)=  0.0186   gamma=  111.83 GHz
     Gaussian Broadening:   0.030 Ry, ngauss=   0
     DOS =  2.360595 states/spin/Ry/Unit Cell at Ef= 17.144134 eV
     lambda(    1)=  0.1622   gamma=   35.09 GHz
     lambda(    2)=  0.0324   gamma=    7.56 GHz
     lambda(    3)=  0.0228   gamma=    7.12 GHz
     lambda(    4)=  0.4955   gamma=  961.03 GHz
     lambda(    5)=  0.4336   gamma=  870.20 GHz
     lambda(    6)=  0.3380   gamma=  806.39 GHz
     lambda(    7)=  0.2315   gamma=  571.22 GHz
     lambda(    8)=  0.0727   gamma=  212.80 GHz
     lambda(    9)=  0.0641   gamma=  208.71 GHz
     lambda(   10)=  0.0330   gamma=  115.45 GHz
     lambda(   11)=  0.0243   gamma=   87.21 GHz
     lambda(   12)=  0.0445   gamma=  182.91 GHz
     lambda(   13)=  0.0084   gamma=   34.98 GHz
     lambda(   14)=  0.0046   gamma=   19.35 GHz
     lambda(   15)=  0.0700   gamma=  323.02 GHz
     lambda(   16)=  0.0375   gamma=  178.54 GHz
     lambda(   17)=  0.0061   gamma=   29.93 GHz
     lambda(   18)=  0.0171   gamma=   89.62 GHz
     lambda(   19)=  0.0184   gamma=   99.81 GHz
     lambda(   20)=  0.0237   gamma=  143.38 GHz
     lambda(   21)=  0.0188   gamma=  114.19 GHz
     Gaussian Broadening:   0.035 Ry, ngauss=   0
     DOS =  2.381114 states/spin/Ry/Unit Cell at Ef= 17.143351 eV
     lambda(    1)=  0.1601   gamma=   34.93 GHz
     lambda(    2)=  0.0328   gamma=    7.73 GHz
     lambda(    3)=  0.0235   gamma=    7.41 GHz
     lambda(    4)=  0.4901   gamma=  958.85 GHz
     lambda(    5)=  0.4426   gamma=  896.04 GHz
     lambda(    6)=  0.3366   gamma=  810.15 GHz
     lambda(    7)=  0.2376   gamma=  591.51 GHz
     lambda(    8)=  0.0773   gamma=  228.39 GHz
     lambda(    9)=  0.0639   gamma=  209.93 GHz
     lambda(   10)=  0.0333   gamma=  117.67 GHz
     lambda(   11)=  0.0247   gamma=   89.52 GHz
     lambda(   12)=  0.0450   gamma=  186.37 GHz
     lambda(   13)=  0.0086   gamma=   36.36 GHz
     lambda(   14)=  0.0047   gamma=   20.25 GHz
     lambda(   15)=  0.0729   gamma=  339.13 GHz
     lambda(   16)=  0.0394   gamma=  189.35 GHz
     lambda(   17)=  0.0061   gamma=   30.58 GHz
     lambda(   18)=  0.0173   gamma=   91.65 GHz
     lambda(   19)=  0.0190   gamma=  103.72 GHz
     lambda(   20)=  0.0243   gamma=  148.62 GHz
     lambda(   21)=  0.0187   gamma=  114.83 GHz
     Gaussian Broadening:   0.040 Ry, ngauss=   0
     DOS =  2.398900 states/spin/Ry/Unit Cell at Ef= 17.142416 eV
     lambda(    1)=  0.1572   gamma=   34.56 GHz
     lambda(    2)=  0.0332   gamma=    7.88 GHz
     lambda(    3)=  0.0243   gamma=    7.71 GHz
     lambda(    4)=  0.4833   gamma=  952.51 GHz
     lambda(    5)=  0.4503   gamma=  918.53 GHz
     lambda(    6)=  0.3334   gamma=  808.39 GHz
     lambda(    7)=  0.2424   gamma=  607.97 GHz
     lambda(    8)=  0.0818   gamma=  243.41 GHz
     lambda(    9)=  0.0636   gamma=  210.45 GHz
     lambda(   10)=  0.0335   gamma=  119.22 GHz
     lambda(   11)=  0.0250   gamma=   91.27 GHz
     lambda(   12)=  0.0454   gamma=  189.55 GHz
     lambda(   13)=  0.0089   gamma=   37.80 GHz
     lambda(   14)=  0.0049   gamma=   21.29 GHz
     lambda(   15)=  0.0744   gamma=  349.07 GHz
     lambda(   16)=  0.0408   gamma=  197.60 GHz
     lambda(   17)=  0.0062   gamma=   31.07 GHz
     lambda(   18)=  0.0175   gamma=   93.37 GHz
     lambda(   19)=  0.0195   gamma=  107.33 GHz
     lambda(   20)=  0.0249   gamma=  153.29 GHz
     lambda(   21)=  0.0186   gamma=  114.98 GHz
     Gaussian Broadening:   0.045 Ry, ngauss=   0
     DOS =  2.416850 states/spin/Ry/Unit Cell at Ef= 17.141341 eV
     lambda(    1)=  0.1541   gamma=   34.13 GHz
     lambda(    2)=  0.0336   gamma=    8.02 GHz
     lambda(    3)=  0.0250   gamma=    8.01 GHz
     lambda(    4)=  0.4760   gamma=  945.29 GHz
     lambda(    5)=  0.4564   gamma=  937.95 GHz
     lambda(    6)=  0.3295   gamma=  804.92 GHz
     lambda(    7)=  0.2469   gamma=  623.86 GHz
     lambda(    8)=  0.0866   gamma=  259.42 GHz
     lambda(    9)=  0.0633   gamma=  211.01 GHz
     lambda(   10)=  0.0337   gamma=  120.67 GHz
     lambda(   11)=  0.0253   gamma=   92.84 GHz
     lambda(   12)=  0.0459   gamma=  193.10 GHz
     lambda(   13)=  0.0092   gamma=   39.40 GHz
     lambda(   14)=  0.0052   gamma=   22.52 GHz
     lambda(   15)=  0.0753   gamma=  355.88 GHz
     lambda(   16)=  0.0420   gamma=  204.74 GHz
     lambda(   17)=  0.0062   gamma=   31.52 GHz
     lambda(   18)=  0.0177   gamma=   95.08 GHz
     lambda(   19)=  0.0200   gamma=  110.84 GHz
     lambda(   20)=  0.0254   gamma=  157.76 GHz
     lambda(   21)=  0.0185   gamma=  115.33 GHz
     Gaussian Broadening:   0.050 Ry, ngauss=   0
     DOS =  2.436152 states/spin/Ry/Unit Cell at Ef= 17.140123 eV
     lambda(    1)=  0.1511   gamma=   33.74 GHz
     lambda(    2)=  0.0339   gamma=    8.17 GHz
     lambda(    3)=  0.0258   gamma=    8.32 GHz
     lambda(    4)=  0.4691   gamma=  938.97 GHz
     lambda(    5)=  0.4606   gamma=  954.02 GHz
     lambda(    6)=  0.3255   gamma=  801.43 GHz
     lambda(    7)=  0.2513   gamma=  640.11 GHz
     lambda(    8)=  0.0917   gamma=  277.16 GHz
     lambda(    9)=  0.0631   gamma=  211.95 GHz
     lambda(   10)=  0.0339   gamma=  122.25 GHz
     lambda(   11)=  0.0255   gamma=   94.39 GHz
     lambda(   12)=  0.0465   gamma=  197.29 GHz
     lambda(   13)=  0.0096   gamma=   41.18 GHz
     lambda(   14)=  0.0055   gamma=   23.97 GHz
     lambda(   15)=  0.0759   gamma=  361.21 GHz
     lambda(   16)=  0.0430   gamma=  211.42 GHz
     lambda(   17)=  0.0063   gamma=   32.00 GHz
     lambda(   18)=  0.0179   gamma=   96.92 GHz
     lambda(   19)=  0.0205   gamma=  114.34 GHz
     lambda(   20)=  0.0259   gamma=  162.13 GHz
     lambda(   21)=  0.0185   gamma=  116.20 GHz
 
 
     Number of q in the star =   24
     List of q in the star:
          1   0.433012700   0.324759500   0.324759500
          2  -0.433012700   0.324759500  -0.324759500
          3   0.433012700  -0.324759500  -0.324759500
          4   0.324759500   0.433012700  -0.324759500
          5  -0.324759500  -0.433012700  -0.324759500
          6   0.324759500  -0.433012700   0.324759500
          7  -0.324759500   0.433012700   0.324759500
          8   0.324759500  -0.324759500   0.433012700
          9  -0.324759500  -0.324759500  -0.433012700
         10   0.324759500   0.324759500  -0.433012700
         11  -0.324759500   0.324759500   0.433012700
         12  -0.433012700   0.324759500   0.324759500
         13  -0.433012700  -0.324759500  -0.324759500
         14   0.433012700   0.324759500  -0.324759500
         15   0.433012700  -0.324759500   0.324759500
         16   0.324759500   0.324759500   0.433012700
         17  -0.324759500   0.324759500  -0.433012700
         18   0.324759500  -0.324759500  -0.433012700
         19  -0.324759500  -0.324759500   0.433012700
         20   0.324759500   0.433012700   0.324759500
         21   0.324759500  -0.433012700  -0.324759500
         22  -0.324759500  -0.433012700   0.324759500
         23  -0.324759500   0.433012700  -0.324759500
         24  -0.433012700  -0.324759500   0.324759500
 
     init_run     :      0.07s CPU      0.13s WALL (       1 calls)
     electrons    :     25.19s CPU     28.03s WALL (       1 calls)

     Called by init_run:
     wfcinit      :      0.00s CPU      0.02s WALL (       1 calls)
     potinit      :      0.01s CPU      0.04s WALL (       1 calls)
     hinit0       :      0.03s CPU      0.03s WALL (       1 calls)

     Called by electrons:
     c_bands      :     25.15s CPU     27.98s WALL (       1 calls)
     v_of_rho     :      0.01s CPU      0.03s WALL (       2 calls)
     newd         :      0.00s CPU      0.02s WALL (       2 calls)

     Called by c_bands:
     init_us_2    :      3.48s CPU      3.86s WALL (  134368 calls)
     cegterg      :     16.77s CPU     18.01s WALL (    1104 calls)

     Called by *egterg:
     cdiaghg      :      5.83s CPU      6.23s WALL (   17177 calls)
     h_psi        :   1739.35s CPU   2081.38s WALL ( 1505816 calls)
     s_psi        :     29.50s CPU     33.41s WALL ( 3101607 calls)
     g_psi        :      0.05s CPU      0.05s WALL (   16089 calls)

     Called by h_psi:
     h_psi:calbec :     27.27s CPU     30.60s WALL ( 1505816 calls)
     vloc_psi     :   1685.00s CPU   2020.26s WALL ( 1505816 calls)
     add_vuspsi   :     14.10s CPU     15.94s WALL ( 1505816 calls)

     General routines
     calbec       :     89.51s CPU     96.92s WALL ( 3274599 calls)
     fft          :      0.64s CPU      0.84s WALL (    3895 calls)
     ffts         :      0.64s CPU      0.72s WALL (   12307 calls)
     fftw         :   2357.88s CPU   2851.84s WALL (20605940 calls)
     interpolate  :      0.17s CPU      0.19s WALL (     421 calls)
     davcio       :     17.39s CPU    326.44s WALL (  582297 calls)
 
     Parallel routines
 
     PHONON       :      1h 9m CPU      1h25m WALL

     INITIALIZATION: 
     phq_setup    :      0.01s CPU      0.04s WALL (       1 calls)
     phq_init     :     18.51s CPU     22.07s WALL (       1 calls)
 
     phq_init     :     18.51s CPU     22.07s WALL (       1 calls)
     set_drhoc    :      0.04s CPU      0.04s WALL (       3 calls)
     init_vloc    :      0.00s CPU      0.01s WALL (       2 calls)
     init_us_1    :      0.05s CPU      0.11s WALL (       2 calls)
     newd         :      0.00s CPU      0.02s WALL (       2 calls)
     dvanqq       :      0.18s CPU      0.18s WALL (       1 calls)
     drho         :     11.43s CPU     13.65s WALL (       1 calls)
 
     DYNAMICAL MATRIX:
     dynmat0      :      3.03s CPU      3.71s WALL (       1 calls)
     phqscf       :   4087.05s CPU   5032.11s WALL (       1 calls)
     dynmatrix    :      0.09s CPU      0.11s WALL (       1 calls)
 
     phqscf       :   4087.05s CPU   5032.11s WALL (       1 calls)
     solve_linter :   4052.38s CPU   4991.85s WALL (      21 calls)
     drhodv       :     34.65s CPU     37.17s WALL (      21 calls)
 
     dynmat0      :      3.03s CPU      3.71s WALL (       1 calls)
     dynmat_us    :      2.99s CPU      3.66s WALL (       1 calls)
     d2ionq       :      0.01s CPU      0.01s WALL (       1 calls)
     dynmatcc     :      0.03s CPU      0.03s WALL (       1 calls)
 
     dynmat_us    :      2.99s CPU      3.66s WALL (       1 calls)
     addusdynmat  :      0.00s CPU      0.00s WALL (       1 calls)
 
     phqscf       :   4087.05s CPU   5032.11s WALL (       1 calls)
     solve_linter :   4052.38s CPU   4991.85s WALL (      21 calls)
 
     solve_linter :   4052.38s CPU   4991.85s WALL (      21 calls)
     dvqpsi_us    :     16.87s CPU     18.42s WALL (   11424 calls)
     ortho        :     40.29s CPU     42.40s WALL (  108256 calls)
     cgsolve      :   1841.67s CPU   2197.40s WALL (  108256 calls)
     incdrhoscf   :    313.76s CPU    385.78s WALL (  108256 calls)
     addusddens   :      3.39s CPU      4.44s WALL (     220 calls)
     vpsifft      :    420.42s CPU    514.86s WALL (  108256 calls)
     dv_of_drho   :      0.54s CPU      0.57s WALL (     199 calls)
     mix_pot      :     16.55s CPU     52.83s WALL (     199 calls)
     psymdvscf    :      5.14s CPU      5.37s WALL (     199 calls)
     newdq        :      2.73s CPU      2.74s WALL (     199 calls)
     adddvscf     :      3.22s CPU      3.67s WALL (  108256 calls)
     drhodvus     :      3.69s CPU      7.16s WALL (      21 calls)
 
     dvqpsi_us    :     16.87s CPU     18.42s WALL (   11424 calls)
     dvqpsi_us_on :      6.44s CPU      6.86s WALL (   11424 calls)
 
     cgsolve      :   1841.67s CPU   2197.40s WALL (  108256 calls)
     ch_psi       :   1822.30s CPU   2175.33s WALL ( 1487535 calls)
 
     ch_psi       :   1822.30s CPU   2175.33s WALL ( 1487535 calls)
     h_psi        :   1739.35s CPU   2081.38s WALL ( 1505816 calls)
     last         :     61.52s CPU     69.35s WALL ( 1487535 calls)
 
     h_psi        :   1739.35s CPU   2081.38s WALL ( 1505816 calls)
     add_vuspsi   :     14.10s CPU     15.94s WALL ( 1505816 calls)
 
     incdrhoscf   :    313.76s CPU    385.78s WALL (  108256 calls)
     addusdbec    :      3.44s CPU      3.81s WALL (  119680 calls)
 
     drhodvus     :      3.69s CPU      7.16s WALL (      21 calls)
 
      Electron-phonon coupling
     elphel       :    103.37s CPU    150.84s WALL (      21 calls)
     elphsum      :     31.56s CPU     32.04s WALL (       1 calls)
 
      General routines
     calbec       :     89.51s CPU     96.92s WALL ( 3274599 calls)
     fft          :      0.64s CPU      0.84s WALL (    3895 calls)
     ffts         :      0.64s CPU      0.72s WALL (   12307 calls)
     fftw         :   2357.88s CPU   2851.84s WALL (20605940 calls)
     davcio       :     17.39s CPU    326.44s WALL (  582297 calls)
     write_rec    :      0.15s CPU     25.87s WALL (     220 calls)
 
 
     PHONON       :      1h 9m CPU      1h25m WALL

 
   This run was terminated on:  18:36:31  21Jul2022            

=------------------------------------------------------------------------------=
   JOB DONE.
=------------------------------------------------------------------------------=
