
     Program PHONON v.6.8 starts on 22Jul2022 at 10:46:39 

     This program is part of the open-source Quantum ESPRESSO suite
     for quantum simulation of materials; please cite
         "P. Giannozzi et al., J. Phys.:Condens. Matter 21 395502 (2009);
         "P. Giannozzi et al., J. Phys.:Condens. Matter 29 465901 (2017);
         "P. Giannozzi et al., J. Chem. Phys. 152 154105 (2020);
          URL http://www.quantum-espresso.org", 
     in publications or presentations arising from this work. More details at
     http://www.quantum-espresso.org/quote

     Parallel version (MPI), running on    48 processors

     MPI processes distributed on     1 nodes
     K-points division:     npool     =       4
     R & G space division:  proc/nbgrp/npool/nimage =      12
     188600 MiB available memory on the printing compute node when the environment starts
 
     Waiting for input...
     Reading input from standard input

     Reading xml data from directory:

     ./tmp/Ca1H6.save/

     IMPORTANT: XC functional enforced from input :
     Exchange-correlation= PBE
                           (   1   4   3   4   0   0   0)
     Any further DFT definition will be discarded
     Please, verify this is what you really want

 
     Parallelization info
     --------------------
     sticks:   dense  smooth     PW     G-vecs:    dense   smooth      PW
     Min         139      46     17                 3602      698     155
     Max         140      47     18                 3604      701     157
     Sum        1669     557    205                43227     8391    1865
 
     Using Slab Decomposition
 
     Reading collected, re-writing distributed wavefunctions

     Saving dvscf to file. Distribute only q points, not irreducible represetations.

     Calculation of q =    0.0000000   0.0000000   0.6495191

     Subspace diagonalization in iterative solution of the eigenvalue problem:
     a serial algorithm will be used

 
     Parallelization info
     --------------------
     sticks:   dense  smooth     PW     G-vecs:    dense   smooth      PW
     Min         139      46     17                 3602      698     162
     Max         140      47     18                 3604      701     164
     Sum        1669     557    213                43227     8391    1961
 
     Using Slab Decomposition
 

     Title: 
     Electron-phonon coefficients for Ca1H6                                     


     bravais-lattice index     =            0
     lattice parameter (alat)  =       5.5613  a.u.
     unit-cell volume          =     132.4087 (a.u.)^3
     number of atoms/cell      =            7
     number of atomic types    =            2
     number of electrons       =        16.00
     number of Kohn-Sham states=           12
     kinetic-energy cutoff     =      60.0000  Ry
     charge density cutoff     =     720.0000  Ry
     Exchange-correlation= PBE
                           (   1   4   3   4   0   0   0)

     celldm(1)=   5.561340  celldm(2)=   0.000000  celldm(3)=   0.000000
     celldm(4)=   0.000000  celldm(5)=   0.000000  celldm(6)=   0.000000

     crystal axes: (cart. coord. in units of alat)
               a(1) = (  -0.577350   0.577350   0.577350 )  
               a(2) = (   0.577350  -0.577350   0.577350 )  
               a(3) = (   0.577350   0.577350  -0.577350 )  

     reciprocal axes: (cart. coord. in units 2 pi/alat)
               b(1) = ( -0.000000  0.866025  0.866025 )  
               b(2) = (  0.866025 -0.000000  0.866025 )  
               b(3) = (  0.866025  0.866025  0.000000 )  


     PseudoPot. # 1 for Ca read from file:
     /work/home/mayuan/code/my_script/scripts_tests/out2/200.0/pp/ca_pbe_v1.uspp.F.UPF
     MD5 check sum: 403a4c14b9e4d4dfdc3024c9a3812218
     Pseudo is Ultrasoft + core correction, Zval = 10.0
     Generated by new atomic code, or converted to UPF format
     Using radial grid of  845 points,  6 beta functions with: 
                l(1) =   0
                l(2) =   0
                l(3) =   1
                l(4) =   1
                l(5) =   2
                l(6) =   2
     Q(r) pseudized with  8 coefficients,  rinner =    1.500   1.500   1.500
                                                       1.500   1.500

     PseudoPot. # 2 for H  read from file:
     /work/home/mayuan/code/my_script/scripts_tests/out2/200.0/pp/h_pbe_v1.uspp.F.UPF
     MD5 check sum: 3408e3ff4ec8b0a4e358431e7e038a48
     Pseudo is Ultrasoft, Zval =  1.0
     Generated by new atomic code, or converted to UPF format
     Using radial grid of  615 points,  2 beta functions with: 
                l(1) =   0
                l(2) =   0
     Q(r) pseudized with  8 coefficients,  rinner =    0.700

     atomic species   valence    mass     pseudopotential
        Ca            10.00    40.07800     Ca( 1.00)
        H              1.00     1.00794     H ( 1.00)

     48 Sym. Ops., with inversion, found



   Cartesian axes

     site n.     atom                  positions (alat units)
         1           Ca  tau(   1) = (   0.0000000   0.0000000   0.0000000  )
         2           H   tau(   2) = (   0.2886751   0.0000000   0.5773503  )
         3           H   tau(   3) = (   0.2886751   0.5773503   0.0000000  )
         4           H   tau(   4) = (   0.5773503   0.2886751   0.0000000  )
         5           H   tau(   5) = (   0.0000000   0.2886751   0.5773503  )
         6           H   tau(   6) = (   0.0000000   0.5773503   0.2886751  )
         7           H   tau(   7) = (   0.5773503   0.0000000   0.2886751  )

     number of k points=  1296  Methfessel-Paxton smearing, width (Ry)=  0.0200

     Number of k-points >= 100: set verbosity='high' to print them.

     Dense  grid:    43227 G-vectors     FFT dimensions: (  48,  48,  48)

     Smooth grid:     8391 G-vectors     FFT dimensions: (  27,  27,  27)

     Estimated max dynamical RAM per process >       8.38 MB

     Estimated total dynamical RAM >     402.10 MB

     The potential is recalculated from file :
     ./tmp/_ph0/Ca1H6.save/charge-density

     Starting wfcs are   16 atomic wfcs

     Band Structure Calculation
     Davidson diagonalization with overlap

     ethr =  6.25E-11,  avg # of iterations = 14.8

     total cpu time spent up to now is       11.5 secs

     End of band structure calculation

     Number of k-points >= 100: set verbosity='high' to print the bands.

     the Fermi energy is    17.0980 ev

     Writing output data file ./tmp/_ph0/Ca1H6.save/

     Electron-phonon coefficients for Ca1H6                                     

     bravais-lattice index     =            0
     lattice parameter (alat)  =       5.5613  a.u.
     unit-cell volume          =     132.4087 (a.u.)^3
     number of atoms/cell      =            7
     number of atomic types    =            2
     kinetic-energy cut-off    =      60.0000  Ry
     charge density cut-off    =     720.0000  Ry
     convergence threshold     =      1.0E-16
     beta                      =       0.7000
     number of iterations used =            4
     Exchange-correlation= PBE
                           (   1   4   3   4   0   0   0)


     celldm(1)=    5.56134  celldm(2)=    0.00000  celldm(3)=    0.00000
     celldm(4)=    0.00000  celldm(5)=    0.00000  celldm(6)=    0.00000

     crystal axes: (cart. coord. in units of alat)
               a(1) = ( -0.5774  0.5774  0.5774 )  
               a(2) = (  0.5774 -0.5774  0.5774 )  
               a(3) = (  0.5774  0.5774 -0.5774 )  

     reciprocal axes: (cart. coord. in units 2 pi/alat)
               b(1) = ( -0.0000  0.8660  0.8660 )  
               b(2) = (  0.8660 -0.0000  0.8660 )  
               b(3) = (  0.8660  0.8660  0.0000 )  


     Atoms inside the unit cell: 

     Cartesian axes

     site n.  atom      mass           positions (alat units)
        1     Ca  40.0780   tau(    1) = (    0.00000    0.00000    0.00000  )
        2     H    1.0079   tau(    2) = (    0.28868    0.00000    0.57735  )
        3     H    1.0079   tau(    3) = (    0.28868    0.57735    0.00000  )
        4     H    1.0079   tau(    4) = (    0.57735    0.28868    0.00000  )
        5     H    1.0079   tau(    5) = (    0.00000    0.28868    0.57735  )
        6     H    1.0079   tau(    6) = (    0.00000    0.57735    0.28868  )
        7     H    1.0079   tau(    7) = (    0.57735    0.00000    0.28868  )

     Computing dynamical matrix for 
                    q = (   0.0000000   0.0000000   0.6495191 )
 
      8 Sym.Ops. (no q -> -q+G )


     G cutoff =  564.0682  (   3604 G-vectors)     FFT grid: ( 48, 48, 48)
     G cutoff =  188.0227  (    699 G-vectors)  smooth grid: ( 27, 27, 27)

     number of k points=  1296  Methfessel-Paxton smearing, width (Ry)=  0.0200

     PseudoPot. # 1 for Ca read from file:
     /work/home/mayuan/code/my_script/scripts_tests/out2/200.0/pp/ca_pbe_v1.uspp.F.UPF
     MD5 check sum: 403a4c14b9e4d4dfdc3024c9a3812218
     Pseudo is Ultrasoft + core correction, Zval = 10.0
     Generated by new atomic code, or converted to UPF format
     Using radial grid of  845 points,  6 beta functions with: 
                l(1) =   0
                l(2) =   0
                l(3) =   1
                l(4) =   1
                l(5) =   2
                l(6) =   2
     Q(r) pseudized with  8 coefficients,  rinner =    1.500   1.500   1.500
                                                       1.500   1.500

     PseudoPot. # 2 for H  read from file:
     /work/home/mayuan/code/my_script/scripts_tests/out2/200.0/pp/h_pbe_v1.uspp.F.UPF
     MD5 check sum: 3408e3ff4ec8b0a4e358431e7e038a48
     Pseudo is Ultrasoft, Zval =  1.0
     Generated by new atomic code, or converted to UPF format
     Using radial grid of  615 points,  2 beta functions with: 
                l(1) =   0
                l(2) =   0
     Q(r) pseudized with  8 coefficients,  rinner =    0.700

     Mode symmetry, C_4v (4mm)  point group:


     Atomic displacements:
     There are   15 irreducible representations

     Representation     1      1 modes -  To be done

     Representation     2      1 modes -  To be done

     Representation     3      1 modes -  To be done

     Representation     4      1 modes -  To be done

     Representation     5      1 modes -  To be done

     Representation     6      1 modes -  To be done

     Representation     7      1 modes -  To be done

     Representation     8      1 modes -  To be done

     Representation     9      1 modes -  To be done

     Representation    10      2 modes -  To be done

     Representation    11      2 modes -  To be done

     Representation    12      2 modes -  To be done

     Representation    13      2 modes -  To be done

     Representation    14      2 modes -  To be done

     Representation    15      2 modes -  To be done



     Alpha used in Ewald sum =   2.8000
     PHONON       :     17.87s CPU     24.25s WALL



     Representation #   1 mode #   1

     Self-consistent Calculation

      iter #   1 total cpu time :    28.9 secs   av.it.:   4.0
      thresh= 1.000E-02 alpha_mix =  0.700 |ddv_scf|^2 =  1.862E-06

      iter #   2 total cpu time :    42.6 secs   av.it.:   9.0
      thresh= 1.364E-04 alpha_mix =  0.700 |ddv_scf|^2 =  3.275E-06

      iter #   3 total cpu time :    53.8 secs   av.it.:   8.3
      thresh= 1.810E-04 alpha_mix =  0.700 |ddv_scf|^2 =  2.552E-09

      iter #   4 total cpu time :    66.1 secs   av.it.:   9.0
      thresh= 5.052E-06 alpha_mix =  0.700 |ddv_scf|^2 =  7.509E-11

      iter #   5 total cpu time :    79.2 secs   av.it.:   9.2
      thresh= 8.665E-07 alpha_mix =  0.700 |ddv_scf|^2 =  2.216E-12

      iter #   6 total cpu time :    92.3 secs   av.it.:   9.0
      thresh= 1.489E-07 alpha_mix =  0.700 |ddv_scf|^2 =  2.223E-13

      iter #   7 total cpu time :   104.7 secs   av.it.:   9.1
      thresh= 4.715E-08 alpha_mix =  0.700 |ddv_scf|^2 =  1.116E-14

      iter #   8 total cpu time :   118.2 secs   av.it.:   9.0
      thresh= 1.057E-08 alpha_mix =  0.700 |ddv_scf|^2 =  5.207E-16

      iter #   9 total cpu time :   131.6 secs   av.it.:   8.9
      thresh= 2.282E-09 alpha_mix =  0.700 |ddv_scf|^2 =  1.641E-16

      iter #  10 total cpu time :   145.0 secs   av.it.:   8.6
      thresh= 1.281E-09 alpha_mix =  0.700 |ddv_scf|^2 =  1.073E-18

     End of self-consistent calculation

     Convergence has been achieved 


     Representation #   2 mode #   2

     Self-consistent Calculation

      iter #   1 total cpu time :   154.8 secs   av.it.:   4.1
      thresh= 1.000E-02 alpha_mix =  0.700 |ddv_scf|^2 =  1.066E-06

      iter #   2 total cpu time :   164.1 secs   av.it.:   9.3
      thresh= 1.032E-04 alpha_mix =  0.700 |ddv_scf|^2 =  1.035E-06

      iter #   3 total cpu time :   172.3 secs   av.it.:   8.7
      thresh= 1.017E-04 alpha_mix =  0.700 |ddv_scf|^2 =  3.839E-08

      iter #   4 total cpu time :   181.5 secs   av.it.:   8.6
      thresh= 1.959E-05 alpha_mix =  0.700 |ddv_scf|^2 =  5.954E-10

      iter #   5 total cpu time :   190.5 secs   av.it.:   9.2
      thresh= 2.440E-06 alpha_mix =  0.700 |ddv_scf|^2 =  1.841E-11

      iter #   6 total cpu time :   199.1 secs   av.it.:   9.2
      thresh= 4.291E-07 alpha_mix =  0.700 |ddv_scf|^2 =  6.112E-13

      iter #   7 total cpu time :   210.7 secs   av.it.:   9.2
      thresh= 7.818E-08 alpha_mix =  0.700 |ddv_scf|^2 =  1.288E-14

      iter #   8 total cpu time :   220.6 secs   av.it.:   9.5
      thresh= 1.135E-08 alpha_mix =  0.700 |ddv_scf|^2 =  8.697E-16

      iter #   9 total cpu time :   230.5 secs   av.it.:   9.4
      thresh= 2.949E-09 alpha_mix =  0.700 |ddv_scf|^2 =  4.372E-16

      iter #  10 total cpu time :   240.6 secs   av.it.:   8.7
      thresh= 2.091E-09 alpha_mix =  0.700 |ddv_scf|^2 =  5.231E-17

     End of self-consistent calculation

     Convergence has been achieved 


     Representation #   3 mode #   3

     Self-consistent Calculation

      iter #   1 total cpu time :   250.3 secs   av.it.:   6.6
      thresh= 1.000E-02 alpha_mix =  0.700 |ddv_scf|^2 =  1.062E-04

      iter #   2 total cpu time :   259.7 secs   av.it.:   9.2
      thresh= 1.031E-03 alpha_mix =  0.700 |ddv_scf|^2 =  1.962E-04

      iter #   3 total cpu time :   267.8 secs   av.it.:   8.3
      thresh= 1.401E-03 alpha_mix =  0.700 |ddv_scf|^2 =  2.154E-07

      iter #   4 total cpu time :   275.5 secs   av.it.:   9.3
      thresh= 4.641E-05 alpha_mix =  0.700 |ddv_scf|^2 =  9.482E-09

      iter #   5 total cpu time :   285.3 secs   av.it.:   9.2
      thresh= 9.737E-06 alpha_mix =  0.700 |ddv_scf|^2 =  4.884E-10

      iter #   6 total cpu time :   294.8 secs   av.it.:   8.9
      thresh= 2.210E-06 alpha_mix =  0.700 |ddv_scf|^2 =  4.791E-12

      iter #   7 total cpu time :   303.8 secs   av.it.:   9.4
      thresh= 2.189E-07 alpha_mix =  0.700 |ddv_scf|^2 =  2.728E-13

      iter #   8 total cpu time :   317.1 secs   av.it.:   9.3
      thresh= 5.223E-08 alpha_mix =  0.700 |ddv_scf|^2 =  7.052E-14

      iter #   9 total cpu time :   328.1 secs   av.it.:   8.9
      thresh= 2.656E-08 alpha_mix =  0.700 |ddv_scf|^2 =  3.775E-15

      iter #  10 total cpu time :   337.0 secs   av.it.:   8.8
      thresh= 6.144E-09 alpha_mix =  0.700 |ddv_scf|^2 =  7.384E-17

     End of self-consistent calculation

     Convergence has been achieved 


     Representation #   4 mode #   4

     Self-consistent Calculation

      iter #   1 total cpu time :   345.8 secs   av.it.:   4.4
      thresh= 1.000E-02 alpha_mix =  0.700 |ddv_scf|^2 =  3.407E-06

      iter #   2 total cpu time :   354.3 secs   av.it.:   9.2
      thresh= 1.846E-04 alpha_mix =  0.700 |ddv_scf|^2 =  6.160E-06

      iter #   3 total cpu time :   364.2 secs   av.it.:   8.3
      thresh= 2.482E-04 alpha_mix =  0.700 |ddv_scf|^2 =  3.735E-09

      iter #   4 total cpu time :   374.0 secs   av.it.:   9.4
      thresh= 6.111E-06 alpha_mix =  0.700 |ddv_scf|^2 =  2.162E-10

      iter #   5 total cpu time :   383.3 secs   av.it.:   9.4
      thresh= 1.470E-06 alpha_mix =  0.700 |ddv_scf|^2 =  1.923E-11

      iter #   6 total cpu time :   393.0 secs   av.it.:   9.3
      thresh= 4.385E-07 alpha_mix =  0.700 |ddv_scf|^2 =  6.051E-13

      iter #   7 total cpu time :   402.3 secs   av.it.:   9.2
      thresh= 7.779E-08 alpha_mix =  0.700 |ddv_scf|^2 =  9.702E-15

      iter #   8 total cpu time :   411.8 secs   av.it.:   9.3
      thresh= 9.850E-09 alpha_mix =  0.700 |ddv_scf|^2 =  3.480E-16

      iter #   9 total cpu time :   424.7 secs   av.it.:   9.6
      thresh= 1.866E-09 alpha_mix =  0.700 |ddv_scf|^2 =  1.892E-16

      iter #  10 total cpu time :   435.8 secs   av.it.:   8.7
      thresh= 1.375E-09 alpha_mix =  0.700 |ddv_scf|^2 =  1.857E-17

     End of self-consistent calculation

     Convergence has been achieved 


     Representation #   5 mode #   5

     Self-consistent Calculation

      iter #   1 total cpu time :   445.6 secs   av.it.:   3.0
      thresh= 1.000E-02 alpha_mix =  0.700 |ddv_scf|^2 =  4.596E-09

      iter #   2 total cpu time :   454.4 secs   av.it.:   8.1
      thresh= 6.780E-06 alpha_mix =  0.700 |ddv_scf|^2 =  4.350E-10

      iter #   3 total cpu time :   464.2 secs   av.it.:   7.4
      thresh= 2.086E-06 alpha_mix =  0.700 |ddv_scf|^2 =  2.152E-13

      iter #   4 total cpu time :   472.9 secs   av.it.:   7.0
      thresh= 4.639E-08 alpha_mix =  0.700 |ddv_scf|^2 =  7.785E-16

      iter #   5 total cpu time :   481.6 secs   av.it.:   6.9
      thresh= 2.790E-09 alpha_mix =  0.700 |ddv_scf|^2 =  1.120E-17

     End of self-consistent calculation

     Convergence has been achieved 


     Representation #   6 mode #   6

     Self-consistent Calculation

      iter #   1 total cpu time :   491.3 secs   av.it.:   3.7
      thresh= 1.000E-02 alpha_mix =  0.700 |ddv_scf|^2 =  3.590E-07

      iter #   2 total cpu time :   500.9 secs   av.it.:   8.7
      thresh= 5.992E-05 alpha_mix =  0.700 |ddv_scf|^2 =  1.158E-07

      iter #   3 total cpu time :   509.5 secs   av.it.:   8.4
      thresh= 3.403E-05 alpha_mix =  0.700 |ddv_scf|^2 =  1.514E-10

      iter #   4 total cpu time :   519.0 secs   av.it.:   8.3
      thresh= 1.230E-06 alpha_mix =  0.700 |ddv_scf|^2 =  2.503E-13

      iter #   5 total cpu time :   529.7 secs   av.it.:   8.6
      thresh= 5.003E-08 alpha_mix =  0.700 |ddv_scf|^2 =  7.496E-15

      iter #   6 total cpu time :   541.5 secs   av.it.:   8.7
      thresh= 8.658E-09 alpha_mix =  0.700 |ddv_scf|^2 =  7.763E-17

     End of self-consistent calculation

     Convergence has been achieved 


     Representation #   7 mode #   7

     Self-consistent Calculation

      iter #   1 total cpu time :   551.1 secs   av.it.:   3.4
      thresh= 1.000E-02 alpha_mix =  0.700 |ddv_scf|^2 =  8.158E-08

      iter #   2 total cpu time :   559.7 secs   av.it.:   8.7
      thresh= 2.856E-05 alpha_mix =  0.700 |ddv_scf|^2 =  2.391E-08

      iter #   3 total cpu time :   569.0 secs   av.it.:   8.4
      thresh= 1.546E-05 alpha_mix =  0.700 |ddv_scf|^2 =  1.926E-10

      iter #   4 total cpu time :   578.3 secs   av.it.:   8.3
      thresh= 1.388E-06 alpha_mix =  0.700 |ddv_scf|^2 =  7.419E-13

      iter #   5 total cpu time :   587.5 secs   av.it.:   8.3
      thresh= 8.614E-08 alpha_mix =  0.700 |ddv_scf|^2 =  8.092E-15

      iter #   6 total cpu time :   596.3 secs   av.it.:   8.7
      thresh= 8.995E-09 alpha_mix =  0.700 |ddv_scf|^2 =  6.176E-17

     End of self-consistent calculation

     Convergence has been achieved 


     Representation #   8 mode #   8

     Self-consistent Calculation

      iter #   1 total cpu time :   603.2 secs   av.it.:   3.6
      thresh= 1.000E-02 alpha_mix =  0.700 |ddv_scf|^2 =  1.382E-07

      iter #   2 total cpu time :   611.0 secs   av.it.:   8.8
      thresh= 3.717E-05 alpha_mix =  0.700 |ddv_scf|^2 =  4.327E-08

      iter #   3 total cpu time :   620.0 secs   av.it.:   8.4
      thresh= 2.080E-05 alpha_mix =  0.700 |ddv_scf|^2 =  1.706E-10

      iter #   4 total cpu time :   629.3 secs   av.it.:   8.4
      thresh= 1.306E-06 alpha_mix =  0.700 |ddv_scf|^2 =  4.261E-13

      iter #   5 total cpu time :   638.4 secs   av.it.:   8.5
      thresh= 6.528E-08 alpha_mix =  0.700 |ddv_scf|^2 =  7.103E-15

      iter #   6 total cpu time :   646.7 secs   av.it.:   8.6
      thresh= 8.428E-09 alpha_mix =  0.700 |ddv_scf|^2 =  7.143E-17

     End of self-consistent calculation

     Convergence has been achieved 


     Representation #   9 mode #   9

     Self-consistent Calculation

      iter #   1 total cpu time :   654.3 secs   av.it.:   3.8
      thresh= 1.000E-02 alpha_mix =  0.700 |ddv_scf|^2 =  4.558E-08

      iter #   2 total cpu time :   662.2 secs   av.it.:   8.6
      thresh= 2.135E-05 alpha_mix =  0.700 |ddv_scf|^2 =  1.042E-09

      iter #   3 total cpu time :   671.4 secs   av.it.:   8.8
      thresh= 3.228E-06 alpha_mix =  0.700 |ddv_scf|^2 =  2.177E-11

      iter #   4 total cpu time :   680.2 secs   av.it.:   8.5
      thresh= 4.666E-07 alpha_mix =  0.700 |ddv_scf|^2 =  9.077E-14

      iter #   5 total cpu time :   688.4 secs   av.it.:   8.9
      thresh= 3.013E-08 alpha_mix =  0.700 |ddv_scf|^2 =  4.267E-16

      iter #   6 total cpu time :   698.7 secs   av.it.:   8.4
      thresh= 2.066E-09 alpha_mix =  0.700 |ddv_scf|^2 =  8.004E-18

     End of self-consistent calculation

     Convergence has been achieved 


     Representation #  10 modes #  10  11

     Self-consistent Calculation

      iter #   1 total cpu time :   715.7 secs   av.it.:   3.5
      thresh= 1.000E-02 alpha_mix =  0.700 |ddv_scf|^2 =  1.056E-08

      iter #   2 total cpu time :   733.0 secs   av.it.:  10.3
      thresh= 1.028E-05 alpha_mix =  0.700 |ddv_scf|^2 =  2.818E-09

      iter #   3 total cpu time :   749.7 secs   av.it.:   9.9
      thresh= 5.308E-06 alpha_mix =  0.700 |ddv_scf|^2 =  6.296E-11

      iter #   4 total cpu time :   766.6 secs   av.it.:  10.1
      thresh= 7.935E-07 alpha_mix =  0.700 |ddv_scf|^2 =  1.032E-12

      iter #   5 total cpu time :   784.2 secs   av.it.:  10.3
      thresh= 1.016E-07 alpha_mix =  0.700 |ddv_scf|^2 =  1.695E-14

      iter #   6 total cpu time :   801.2 secs   av.it.:  10.3
      thresh= 1.302E-08 alpha_mix =  0.700 |ddv_scf|^2 =  1.600E-16

      iter #   7 total cpu time :   818.1 secs   av.it.:  10.0
      thresh= 1.265E-09 alpha_mix =  0.700 |ddv_scf|^2 =  6.837E-18

     End of self-consistent calculation

     Convergence has been achieved 


     Representation #  11 modes #  12  13

     Self-consistent Calculation

      iter #   1 total cpu time :   843.0 secs   av.it.:   3.8
      thresh= 1.000E-02 alpha_mix =  0.700 |ddv_scf|^2 =  3.144E-08

      iter #   2 total cpu time :   858.8 secs   av.it.:  10.1
      thresh= 1.773E-05 alpha_mix =  0.700 |ddv_scf|^2 =  9.050E-09

      iter #   3 total cpu time :   875.4 secs   av.it.:   9.8
      thresh= 9.513E-06 alpha_mix =  0.700 |ddv_scf|^2 =  1.044E-10

      iter #   4 total cpu time :   894.0 secs   av.it.:   9.8
      thresh= 1.022E-06 alpha_mix =  0.700 |ddv_scf|^2 =  1.108E-12

      iter #   5 total cpu time :   910.4 secs   av.it.:   9.8
      thresh= 1.053E-07 alpha_mix =  0.700 |ddv_scf|^2 =  4.939E-15

      iter #   6 total cpu time :   929.1 secs   av.it.:  10.4
      thresh= 7.028E-09 alpha_mix =  0.700 |ddv_scf|^2 =  3.685E-16

      iter #   7 total cpu time :   949.2 secs   av.it.:  10.2
      thresh= 1.920E-09 alpha_mix =  0.700 |ddv_scf|^2 =  1.638E-17

     End of self-consistent calculation

     Convergence has been achieved 


     Representation #  12 modes #  14  15

     Self-consistent Calculation

      iter #   1 total cpu time :   973.6 secs   av.it.:   6.5
      thresh= 1.000E-02 alpha_mix =  0.700 |ddv_scf|^2 =  7.106E-06

      iter #   2 total cpu time :   991.9 secs   av.it.:  10.3
      thresh= 2.666E-04 alpha_mix =  0.700 |ddv_scf|^2 =  2.709E-06

      iter #   3 total cpu time :  1010.3 secs   av.it.:   9.8
      thresh= 1.646E-04 alpha_mix =  0.700 |ddv_scf|^2 =  1.027E-09

      iter #   4 total cpu time :  1027.4 secs   av.it.:  10.5
      thresh= 3.204E-06 alpha_mix =  0.700 |ddv_scf|^2 =  8.803E-11

      iter #   5 total cpu time :  1044.1 secs   av.it.:   9.9
      thresh= 9.382E-07 alpha_mix =  0.700 |ddv_scf|^2 =  9.092E-13

      iter #   6 total cpu time :  1060.9 secs   av.it.:  10.1
      thresh= 9.535E-08 alpha_mix =  0.700 |ddv_scf|^2 =  4.565E-15

      iter #   7 total cpu time :  1077.8 secs   av.it.:   9.7
      thresh= 6.756E-09 alpha_mix =  0.700 |ddv_scf|^2 =  3.312E-16

      iter #   8 total cpu time :  1094.9 secs   av.it.:   9.8
      thresh= 1.820E-09 alpha_mix =  0.700 |ddv_scf|^2 =  9.124E-19

     End of self-consistent calculation

     Convergence has been achieved 


     Representation #  13 modes #  16  17

     Self-consistent Calculation

      iter #   1 total cpu time :  1120.7 secs   av.it.:   3.9
      thresh= 1.000E-02 alpha_mix =  0.700 |ddv_scf|^2 =  4.168E-08

      iter #   2 total cpu time :  1135.5 secs   av.it.:  10.3
      thresh= 2.041E-05 alpha_mix =  0.700 |ddv_scf|^2 =  1.215E-08

      iter #   3 total cpu time :  1152.8 secs   av.it.:   9.9
      thresh= 1.102E-05 alpha_mix =  0.700 |ddv_scf|^2 =  1.104E-10

      iter #   4 total cpu time :  1170.1 secs   av.it.:  10.2
      thresh= 1.051E-06 alpha_mix =  0.700 |ddv_scf|^2 =  1.916E-12

      iter #   5 total cpu time :  1185.7 secs   av.it.:  10.3
      thresh= 1.384E-07 alpha_mix =  0.700 |ddv_scf|^2 =  5.281E-14

      iter #   6 total cpu time :  1203.1 secs   av.it.:  10.2
      thresh= 2.298E-08 alpha_mix =  0.700 |ddv_scf|^2 =  3.739E-16

      iter #   7 total cpu time :  1219.0 secs   av.it.:  10.1
      thresh= 1.934E-09 alpha_mix =  0.700 |ddv_scf|^2 =  2.394E-17

     End of self-consistent calculation

     Convergence has been achieved 


     Representation #  14 modes #  18  19

     Self-consistent Calculation

      iter #   1 total cpu time :  1241.2 secs   av.it.:   4.1
      thresh= 1.000E-02 alpha_mix =  0.700 |ddv_scf|^2 =  9.020E-08

      iter #   2 total cpu time :  1260.5 secs   av.it.:  10.2
      thresh= 3.003E-05 alpha_mix =  0.700 |ddv_scf|^2 =  2.875E-08

      iter #   3 total cpu time :  1279.6 secs   av.it.:   9.9
      thresh= 1.696E-05 alpha_mix =  0.700 |ddv_scf|^2 =  1.083E-10

      iter #   4 total cpu time :  1293.4 secs   av.it.:  10.2
      thresh= 1.041E-06 alpha_mix =  0.700 |ddv_scf|^2 =  2.428E-12

      iter #   5 total cpu time :  1310.4 secs   av.it.:  10.2
      thresh= 1.558E-07 alpha_mix =  0.700 |ddv_scf|^2 =  4.838E-14

      iter #   6 total cpu time :  1327.3 secs   av.it.:  10.2
      thresh= 2.200E-08 alpha_mix =  0.700 |ddv_scf|^2 =  3.351E-16

      iter #   7 total cpu time :  1347.1 secs   av.it.:  10.1
      thresh= 1.831E-09 alpha_mix =  0.700 |ddv_scf|^2 =  2.341E-17

     End of self-consistent calculation

     Convergence has been achieved 


     Representation #  15 modes #  20  21

     Self-consistent Calculation

      iter #   1 total cpu time :  1373.8 secs   av.it.:   4.1
      thresh= 1.000E-02 alpha_mix =  0.700 |ddv_scf|^2 =  9.671E-08

      iter #   2 total cpu time :  1389.3 secs   av.it.:  10.2
      thresh= 3.110E-05 alpha_mix =  0.700 |ddv_scf|^2 =  3.155E-08

      iter #   3 total cpu time :  1404.6 secs   av.it.:   9.9
      thresh= 1.776E-05 alpha_mix =  0.700 |ddv_scf|^2 =  1.010E-10

      iter #   4 total cpu time :  1425.0 secs   av.it.:  10.1
      thresh= 1.005E-06 alpha_mix =  0.700 |ddv_scf|^2 =  2.294E-12

      iter #   5 total cpu time :  1441.8 secs   av.it.:  10.1
      thresh= 1.515E-07 alpha_mix =  0.700 |ddv_scf|^2 =  4.558E-14

      iter #   6 total cpu time :  1459.5 secs   av.it.:   9.9
      thresh= 2.135E-08 alpha_mix =  0.700 |ddv_scf|^2 =  3.847E-16

      iter #   7 total cpu time :  1475.0 secs   av.it.:   9.8
      thresh= 1.961E-09 alpha_mix =  0.700 |ddv_scf|^2 =  3.028E-17

     End of self-consistent calculation

     Convergence has been achieved 
 
     Number of q in the star =    6
     List of q in the star:
          1   0.000000000   0.000000000   0.649519100
          2   0.649519100  -0.000000000   0.000000000
          3  -0.649519100  -0.000000000  -0.000000000
          4  -0.000000000   0.649519100   0.000000000
          5  -0.000000000  -0.649519100  -0.000000000
          6  -0.000000000  -0.000000000  -0.649519100

     Diagonalizing the dynamical matrix

     q = (    0.000000000   0.000000000   0.649519100 ) 

 **************************************************************************
     freq (    1) =       8.034729 [THz] =     268.009700 [cm-1]
     freq (    2) =       8.034729 [THz] =     268.009700 [cm-1]
     freq (    3) =      11.956857 [THz] =     398.837806 [cm-1]
     freq (    4) =      27.910776 [THz] =     931.003286 [cm-1]
     freq (    5) =      28.110944 [THz] =     937.680164 [cm-1]
     freq (    6) =      28.110944 [THz] =     937.680164 [cm-1]
     freq (    7) =      28.780364 [THz] =     960.009615 [cm-1]
     freq (    8) =      32.651201 [THz] =    1089.126824 [cm-1]
     freq (    9) =      32.651201 [THz] =    1089.126824 [cm-1]
     freq (   10) =      40.649909 [THz] =    1355.935020 [cm-1]
     freq (   11) =      40.649909 [THz] =    1355.935020 [cm-1]
     freq (   12) =      42.158024 [THz] =    1406.240321 [cm-1]
     freq (   13) =      43.171623 [THz] =    1440.050330 [cm-1]
     freq (   14) =      43.171623 [THz] =    1440.050330 [cm-1]
     freq (   15) =      43.869948 [THz] =    1463.343961 [cm-1]
     freq (   16) =      44.479168 [THz] =    1483.665338 [cm-1]
     freq (   17) =      47.053985 [THz] =    1569.551993 [cm-1]
     freq (   18) =      47.053985 [THz] =    1569.551993 [cm-1]
     freq (   19) =      54.814822 [THz] =    1828.425662 [cm-1]
     freq (   20) =      56.826773 [THz] =    1895.537104 [cm-1]
     freq (   21) =      59.466975 [THz] =    1983.604784 [cm-1]
 **************************************************************************

     Mode symmetry, C_4v (4mm)  point group:

     freq (   1-   2) =        268.0  [cm-1]   --> E    G_5 D_5       
     freq (   3-   3) =        398.8  [cm-1]   --> A_1  G_1 D_1       
     freq (   4-   4) =        931.0  [cm-1]   --> B_1  G_3 D_2       
     freq (   5-   6) =        937.7  [cm-1]   --> E    G_5 D_5       
     freq (   7-   7) =        960.0  [cm-1]   --> B_2  G_4 D_2'      
     freq (   8-   9) =       1089.1  [cm-1]   --> E    G_5 D_5       
     freq (  10-  11) =       1355.9  [cm-1]   --> E    G_5 D_5       
     freq (  12-  12) =       1406.2  [cm-1]   --> B_1  G_3 D_2       
     freq (  13-  14) =       1440.1  [cm-1]   --> E    G_5 D_5       
     freq (  15-  15) =       1463.3  [cm-1]   --> A_1  G_1 D_1       
     freq (  16-  16) =       1483.7  [cm-1]   --> A_2  G_2 D_1'      
     freq (  17-  18) =       1569.6  [cm-1]   --> E    G_5 D_5       
     freq (  19-  19) =       1828.4  [cm-1]   --> A_1  G_1 D_1       
     freq (  20-  20) =       1895.5  [cm-1]   --> B_1  G_3 D_2       
     freq (  21-  21) =       1983.6  [cm-1]   --> A_1  G_1 D_1       
     electron-phonon interaction  ...

     Gaussian Broadening:   0.005 Ry, ngauss=   0
     DOS =  1.900675 states/spin/Ry/Unit Cell at Ef= 17.155196 eV
     lambda(    1)=  0.1832   gamma=   21.47 GHz
     lambda(    2)=  0.1936   gamma=   22.68 GHz
     lambda(    3)=  0.0950   gamma=   24.65 GHz
     lambda(    4)=  0.0713   gamma=  100.74 GHz
     lambda(    5)=  0.1445   gamma=  207.32 GHz
     lambda(    6)=  0.1457   gamma=  209.02 GHz
     lambda(    7)=  1.2802   gamma= 1924.60 GHz
     lambda(    8)=  0.2498   gamma=  483.27 GHz
     lambda(    9)=  0.2445   gamma=  473.20 GHz
     lambda(   10)=  0.0077   gamma=   23.01 GHz
     lambda(   11)=  0.0080   gamma=   23.87 GHz
     lambda(   12)=  0.0034   gamma=   10.96 GHz
     lambda(   13)=  0.0061   gamma=   20.74 GHz
     lambda(   14)=  0.0059   gamma=   19.94 GHz
     lambda(   15)=  0.0748   gamma=  261.19 GHz
     lambda(   16)=  0.0037   gamma=   13.19 GHz
     lambda(   17)=  0.0031   gamma=   12.57 GHz
     lambda(   18)=  0.0030   gamma=   12.26 GHz
     lambda(   19)=  0.0511   gamma=  278.84 GHz
     lambda(   20)=  0.0018   gamma=   10.81 GHz
     lambda(   21)=  0.0435   gamma=  279.28 GHz
     Gaussian Broadening:   0.010 Ry, ngauss=   0
     DOS =  2.130656 states/spin/Ry/Unit Cell at Ef= 17.149400 eV
     lambda(    1)=  0.1410   gamma=   18.52 GHz
     lambda(    2)=  0.1466   gamma=   19.26 GHz
     lambda(    3)=  0.0413   gamma=   12.01 GHz
     lambda(    4)=  0.0634   gamma=  100.48 GHz
     lambda(    5)=  0.0776   gamma=  124.82 GHz
     lambda(    6)=  0.0780   gamma=  125.46 GHz
     lambda(    7)=  0.7634   gamma= 1286.56 GHz
     lambda(    8)=  0.1690   gamma=  366.48 GHz
     lambda(    9)=  0.1686   gamma=  365.78 GHz
     lambda(   10)=  0.0043   gamma=   14.54 GHz
     lambda(   11)=  0.0044   gamma=   14.89 GHz
     lambda(   12)=  0.0023   gamma=    8.32 GHz
     lambda(   13)=  0.0043   gamma=   16.31 GHz
     lambda(   14)=  0.0042   gamma=   16.04 GHz
     lambda(   15)=  0.0447   gamma=  174.96 GHz
     lambda(   16)=  0.0027   gamma=   10.76 GHz
     lambda(   17)=  0.0053   gamma=   24.06 GHz
     lambda(   18)=  0.0054   gamma=   24.37 GHz
     lambda(   19)=  0.0420   gamma=  256.60 GHz
     lambda(   20)=  0.0067   gamma=   43.98 GHz
     lambda(   21)=  0.0271   gamma=  194.72 GHz
     Gaussian Broadening:   0.015 Ry, ngauss=   0
     DOS =  2.235086 states/spin/Ry/Unit Cell at Ef= 17.146382 eV
     lambda(    1)=  0.1685   gamma=   23.22 GHz
     lambda(    2)=  0.1720   gamma=   23.71 GHz
     lambda(    3)=  0.0327   gamma=    9.98 GHz
     lambda(    4)=  0.0729   gamma=  121.13 GHz
     lambda(    5)=  0.0739   gamma=  124.70 GHz
     lambda(    6)=  0.0742   gamma=  125.22 GHz
     lambda(    7)=  0.7536   gamma= 1332.34 GHz
     lambda(    8)=  0.1791   gamma=  407.54 GHz
     lambda(    9)=  0.1772   gamma=  403.16 GHz
     lambda(   10)=  0.0042   gamma=   14.76 GHz
     lambda(   11)=  0.0043   gamma=   14.99 GHz
     lambda(   12)=  0.0025   gamma=    9.30 GHz
     lambda(   13)=  0.0050   gamma=   20.02 GHz
     lambda(   14)=  0.0050   gamma=   19.94 GHz
     lambda(   15)=  0.0442   gamma=  181.74 GHz
     lambda(   16)=  0.0029   gamma=   12.29 GHz
     lambda(   17)=  0.0072   gamma=   34.00 GHz
     lambda(   18)=  0.0073   gamma=   34.36 GHz
     lambda(   19)=  0.0488   gamma=  312.99 GHz
     lambda(   20)=  0.0094   gamma=   64.96 GHz
     lambda(   21)=  0.0280   gamma=  211.54 GHz
     Gaussian Broadening:   0.020 Ry, ngauss=   0
     DOS =  2.290454 states/spin/Ry/Unit Cell at Ef= 17.145317 eV
     lambda(    1)=  0.1800   gamma=   25.42 GHz
     lambda(    2)=  0.1830   gamma=   25.84 GHz
     lambda(    3)=  0.0307   gamma=    9.59 GHz
     lambda(    4)=  0.0785   gamma=  133.68 GHz
     lambda(    5)=  0.0734   gamma=  126.85 GHz
     lambda(    6)=  0.0737   gamma=  127.37 GHz
     lambda(    7)=  0.7472   gamma= 1353.77 GHz
     lambda(    8)=  0.1772   gamma=  413.09 GHz
     lambda(    9)=  0.1750   gamma=  408.16 GHz
     lambda(   10)=  0.0042   gamma=   15.03 GHz
     lambda(   11)=  0.0042   gamma=   15.22 GHz
     lambda(   12)=  0.0025   gamma=    9.70 GHz
     lambda(   13)=  0.0055   gamma=   22.61 GHz
     lambda(   14)=  0.0055   gamma=   22.57 GHz
     lambda(   15)=  0.0433   gamma=  182.34 GHz
     lambda(   16)=  0.0031   gamma=   13.41 GHz
     lambda(   17)=  0.0073   gamma=   35.48 GHz
     lambda(   18)=  0.0074   gamma=   35.82 GHz
     lambda(   19)=  0.0520   gamma=  341.76 GHz
     lambda(   20)=  0.0104   gamma=   73.62 GHz
     lambda(   21)=  0.0285   gamma=  220.57 GHz
     Gaussian Broadening:   0.025 Ry, ngauss=   0
     DOS =  2.332190 states/spin/Ry/Unit Cell at Ef= 17.144758 eV
     lambda(    1)=  0.1858   gamma=   26.71 GHz
     lambda(    2)=  0.1882   gamma=   27.06 GHz
     lambda(    3)=  0.0308   gamma=    9.82 GHz
     lambda(    4)=  0.0890   gamma=  154.33 GHz
     lambda(    5)=  0.0728   gamma=  128.05 GHz
     lambda(    6)=  0.0730   gamma=  128.53 GHz
     lambda(    7)=  0.7415   gamma= 1367.94 GHz
     lambda(    8)=  0.1757   gamma=  417.17 GHz
     lambda(    9)=  0.1739   gamma=  412.93 GHz
     lambda(   10)=  0.0041   gamma=   15.22 GHz
     lambda(   11)=  0.0042   gamma=   15.38 GHz
     lambda(   12)=  0.0026   gamma=   10.28 GHz
     lambda(   13)=  0.0060   gamma=   24.84 GHz
     lambda(   14)=  0.0060   gamma=   24.80 GHz
     lambda(   15)=  0.0426   gamma=  182.77 GHz
     lambda(   16)=  0.0032   gamma=   14.21 GHz
     lambda(   17)=  0.0073   gamma=   35.94 GHz
     lambda(   18)=  0.0074   gamma=   36.28 GHz
     lambda(   19)=  0.0539   gamma=  361.01 GHz
     lambda(   20)=  0.0111   gamma=   80.17 GHz
     lambda(   21)=  0.0301   gamma=  236.85 GHz
     Gaussian Broadening:   0.030 Ry, ngauss=   0
     DOS =  2.360595 states/spin/Ry/Unit Cell at Ef= 17.144134 eV
     lambda(    1)=  0.1901   gamma=   27.67 GHz
     lambda(    2)=  0.1922   gamma=   27.97 GHz
     lambda(    3)=  0.0324   gamma=   10.46 GHz
     lambda(    4)=  0.1055   gamma=  185.30 GHz
     lambda(    5)=  0.0725   gamma=  129.15 GHz
     lambda(    6)=  0.0728   gamma=  129.60 GHz
     lambda(    7)=  0.7331   gamma= 1368.90 GHz
     lambda(    8)=  0.1772   gamma=  425.74 GHz
     lambda(    9)=  0.1758   gamma=  422.54 GHz
     lambda(   10)=  0.0041   gamma=   15.45 GHz
     lambda(   11)=  0.0042   gamma=   15.59 GHz
     lambda(   12)=  0.0028   gamma=   11.07 GHz
     lambda(   13)=  0.0066   gamma=   27.56 GHz
     lambda(   14)=  0.0065   gamma=   27.51 GHz
     lambda(   15)=  0.0418   gamma=  181.43 GHz
     lambda(   16)=  0.0033   gamma=   14.64 GHz
     lambda(   17)=  0.0074   gamma=   36.82 GHz
     lambda(   18)=  0.0074   gamma=   37.18 GHz
     lambda(   19)=  0.0546   gamma=  369.50 GHz
     lambda(   20)=  0.0115   gamma=   83.95 GHz
     lambda(   21)=  0.0328   gamma=  261.42 GHz
     Gaussian Broadening:   0.035 Ry, ngauss=   0
     DOS =  2.381114 states/spin/Ry/Unit Cell at Ef= 17.143351 eV
     lambda(    1)=  0.1932   gamma=   28.37 GHz
     lambda(    2)=  0.1949   gamma=   28.62 GHz
     lambda(    3)=  0.0350   gamma=   11.38 GHz
     lambda(    4)=  0.1258   gamma=  222.75 GHz
     lambda(    5)=  0.0725   gamma=  130.30 GHz
     lambda(    6)=  0.0728   gamma=  130.73 GHz
     lambda(    7)=  0.7190   gamma= 1354.21 GHz
     lambda(    8)=  0.1796   gamma=  435.38 GHz
     lambda(    9)=  0.1787   gamma=  433.15 GHz
     lambda(   10)=  0.0042   gamma=   15.73 GHz
     lambda(   11)=  0.0042   gamma=   15.86 GHz
     lambda(   12)=  0.0030   gamma=   11.97 GHz
     lambda(   13)=  0.0073   gamma=   31.02 GHz
     lambda(   14)=  0.0073   gamma=   30.96 GHz
     lambda(   15)=  0.0410   gamma=  179.54 GHz
     lambda(   16)=  0.0033   gamma=   14.77 GHz
     lambda(   17)=  0.0076   gamma=   38.21 GHz
     lambda(   18)=  0.0077   gamma=   38.59 GHz
     lambda(   19)=  0.0541   gamma=  369.44 GHz
     lambda(   20)=  0.0116   gamma=   85.34 GHz
     lambda(   21)=  0.0363   gamma=  292.26 GHz
     Gaussian Broadening:   0.040 Ry, ngauss=   0
     DOS =  2.398900 states/spin/Ry/Unit Cell at Ef= 17.142416 eV
     lambda(    1)=  0.1953   gamma=   28.88 GHz
     lambda(    2)=  0.1967   gamma=   29.09 GHz
     lambda(    3)=  0.0381   gamma=   12.47 GHz
     lambda(    4)=  0.1473   gamma=  262.89 GHz
     lambda(    5)=  0.0727   gamma=  131.65 GHz
     lambda(    6)=  0.0730   gamma=  132.07 GHz
     lambda(    7)=  0.7004   gamma= 1328.94 GHz
     lambda(    8)=  0.1820   gamma=  444.57 GHz
     lambda(    9)=  0.1814   gamma=  443.09 GHz
     lambda(   10)=  0.0042   gamma=   16.07 GHz
     lambda(   11)=  0.0043   gamma=   16.19 GHz
     lambda(   12)=  0.0032   gamma=   12.91 GHz
     lambda(   13)=  0.0082   gamma=   35.14 GHz
     lambda(   14)=  0.0082   gamma=   35.07 GHz
     lambda(   15)=  0.0403   gamma=  177.81 GHz
     lambda(   16)=  0.0033   gamma=   14.74 GHz
     lambda(   17)=  0.0079   gamma=   40.05 GHz
     lambda(   18)=  0.0080   gamma=   40.45 GHz
     lambda(   19)=  0.0530   gamma=  364.96 GHz
     lambda(   20)=  0.0115   gamma=   85.39 GHz
     lambda(   21)=  0.0402   gamma=  325.39 GHz
     Gaussian Broadening:   0.045 Ry, ngauss=   0
     DOS =  2.416850 states/spin/Ry/Unit Cell at Ef= 17.141341 eV
     lambda(    1)=  0.1966   gamma=   29.29 GHz
     lambda(    2)=  0.1978   gamma=   29.48 GHz
     lambda(    3)=  0.0412   gamma=   13.59 GHz
     lambda(    4)=  0.1686   gamma=  303.14 GHz
     lambda(    5)=  0.0731   gamma=  133.37 GHz
     lambda(    6)=  0.0734   gamma=  133.79 GHz
     lambda(    7)=  0.6794   gamma= 1298.72 GHz
     lambda(    8)=  0.1843   gamma=  453.44 GHz
     lambda(    9)=  0.1839   gamma=  452.50 GHz
     lambda(   10)=  0.0043   gamma=   16.45 GHz
     lambda(   11)=  0.0043   gamma=   16.57 GHz
     lambda(   12)=  0.0034   gamma=   13.87 GHz
     lambda(   13)=  0.0092   gamma=   39.66 GHz
     lambda(   14)=  0.0092   gamma=   39.57 GHz
     lambda(   15)=  0.0397   gamma=  176.32 GHz
     lambda(   16)=  0.0032   gamma=   14.66 GHz
     lambda(   17)=  0.0083   gamma=   42.27 GHz
     lambda(   18)=  0.0084   gamma=   42.69 GHz
     lambda(   19)=  0.0518   gamma=  359.27 GHz
     lambda(   20)=  0.0114   gamma=   84.96 GHz
     lambda(   21)=  0.0438   gamma=  357.38 GHz
     Gaussian Broadening:   0.050 Ry, ngauss=   0
     DOS =  2.436152 states/spin/Ry/Unit Cell at Ef= 17.140123 eV
     lambda(    1)=  0.1974   gamma=   29.64 GHz
     lambda(    2)=  0.1985   gamma=   29.82 GHz
     lambda(    3)=  0.0441   gamma=   14.68 GHz
     lambda(    4)=  0.1887   gamma=  341.95 GHz
     lambda(    5)=  0.0738   gamma=  135.59 GHz
     lambda(    6)=  0.0740   gamma=  136.02 GHz
     lambda(    7)=  0.6576   gamma= 1267.16 GHz
     lambda(    8)=  0.1864   gamma=  462.32 GHz
     lambda(    9)=  0.1862   gamma=  461.76 GHz
     lambda(   10)=  0.0044   gamma=   16.92 GHz
     lambda(   11)=  0.0044   gamma=   17.03 GHz
     lambda(   12)=  0.0036   gamma=   14.79 GHz
     lambda(   13)=  0.0102   gamma=   44.29 GHz
     lambda(   14)=  0.0102   gamma=   44.18 GHz
     lambda(   15)=  0.0391   gamma=  175.04 GHz
     lambda(   16)=  0.0032   gamma=   14.58 GHz
     lambda(   17)=  0.0087   gamma=   44.80 GHz
     lambda(   18)=  0.0088   gamma=   45.24 GHz
     lambda(   19)=  0.0507   gamma=  354.22 GHz
     lambda(   20)=  0.0113   gamma=   84.62 GHz
     lambda(   21)=  0.0470   gamma=  386.35 GHz
 
 
     Number of q in the star =    6
     List of q in the star:
          1   0.000000000   0.000000000   0.649519100
          2   0.649519100  -0.000000000   0.000000000
          3  -0.649519100  -0.000000000  -0.000000000
          4  -0.000000000   0.649519100   0.000000000
          5  -0.000000000  -0.649519100  -0.000000000
          6  -0.000000000  -0.000000000  -0.649519100
 
     init_run     :      0.08s CPU      0.91s WALL (       1 calls)
     electrons    :      9.60s CPU     10.55s WALL (       1 calls)

     Called by init_run:
     wfcinit      :      0.00s CPU      0.17s WALL (       1 calls)
     potinit      :      0.01s CPU      0.66s WALL (       1 calls)
     hinit0       :      0.03s CPU      0.04s WALL (       1 calls)

     Called by electrons:
     c_bands      :      9.59s CPU     10.54s WALL (       1 calls)
     v_of_rho     :      0.01s CPU      0.06s WALL (       2 calls)
     newd         :      0.01s CPU      0.03s WALL (       2 calls)

     Called by c_bands:
     init_us_2    :      0.62s CPU      0.69s WALL (   23976 calls)
     cegterg      :      4.90s CPU      5.25s WALL (     327 calls)

     Called by *egterg:
     cdiaghg      :      1.68s CPU      1.79s WALL (    5048 calls)
     h_psi        :    409.01s CPU    484.80s WALL (  319333 calls)
     s_psi        :      6.57s CPU      7.40s WALL (  658401 calls)
     g_psi        :      0.01s CPU      0.02s WALL (    4724 calls)

     Called by h_psi:
     h_psi:calbec :      6.07s CPU      6.79s WALL (  319333 calls)
     vloc_psi     :    397.04s CPU    471.38s WALL (  319333 calls)
     add_vuspsi   :      3.13s CPU      3.53s WALL (  319333 calls)

     General routines
     calbec       :     39.85s CPU     42.13s WALL (  702789 calls)
     fft          :      0.45s CPU      0.93s WALL (    3191 calls)
     ffts         :      0.36s CPU      0.41s WALL (    4071 calls)
     fftw         :    697.41s CPU    837.17s WALL ( 4703665 calls)
     interpolate  :      0.25s CPU      0.29s WALL (     333 calls)
     davcio       :      4.15s CPU    134.13s WALL (  122559 calls)
 
     Parallel routines
 
     PHONON       :  19m43.00s CPU  25m18.60s WALL

     INITIALIZATION: 
     phq_setup    :      0.01s CPU      0.03s WALL (       1 calls)
     phq_init     :      7.48s CPU      8.60s WALL (       1 calls)
 
     phq_init     :      7.48s CPU      8.60s WALL (       1 calls)
     set_drhoc    :      0.04s CPU      0.05s WALL (       3 calls)
     init_vloc    :      0.00s CPU      0.01s WALL (       2 calls)
     init_us_1    :      0.05s CPU      0.10s WALL (       2 calls)
     newd         :      0.01s CPU      0.03s WALL (       2 calls)
     dvanqq       :      0.16s CPU      0.16s WALL (       1 calls)
     drho         :      4.21s CPU      4.89s WALL (       1 calls)
 
     DYNAMICAL MATRIX:
     dynmat0      :      1.89s CPU      2.08s WALL (       1 calls)
     phqscf       :   1132.59s CPU   1460.93s WALL (       1 calls)
     dynmatrix    :      0.11s CPU      0.13s WALL (       1 calls)
 
     phqscf       :   1132.59s CPU   1460.93s WALL (       1 calls)
     solve_linter :   1107.12s CPU   1429.24s WALL (      15 calls)
     drhodv       :     25.45s CPU     28.41s WALL (      15 calls)
 
     dynmat0      :      1.89s CPU      2.08s WALL (       1 calls)
     dynmat_us    :      1.85s CPU      2.03s WALL (       1 calls)
     d2ionq       :      0.01s CPU      0.01s WALL (       1 calls)
     dynmatcc     :      0.03s CPU      0.04s WALL (       1 calls)
 
     dynmat_us    :      1.85s CPU      2.03s WALL (       1 calls)
     addusdynmat  :      0.00s CPU      0.00s WALL (       1 calls)
 
     phqscf       :   1132.59s CPU   1460.93s WALL (       1 calls)
     solve_linter :   1107.12s CPU   1429.24s WALL (      15 calls)
 
     solve_linter :   1107.12s CPU   1429.24s WALL (      15 calls)
     dvqpsi_us    :      5.07s CPU      5.52s WALL (    3402 calls)
     ortho        :     25.59s CPU     26.59s WALL (   25110 calls)
     cgsolve      :    430.79s CPU    509.41s WALL (   25110 calls)
     incdrhoscf   :    169.34s CPU    206.06s WALL (   25110 calls)
     addusddens   :      1.55s CPU      3.06s WALL (     127 calls)
     vpsifft      :    144.35s CPU    174.67s WALL (   25110 calls)
     dv_of_drho   :      0.36s CPU      0.42s WALL (     155 calls)
     mix_pot      :     15.00s CPU     40.82s WALL (     112 calls)
     psymdvscf    :      9.59s CPU     10.00s WALL (     112 calls)
     newdq        :      1.72s CPU      1.74s WALL (     112 calls)
     adddvscf     :      0.81s CPU      0.92s WALL (   25110 calls)
     drhodvus     :      3.71s CPU      6.56s WALL (      15 calls)
 
     dvqpsi_us    :      5.07s CPU      5.52s WALL (    3402 calls)
     dvqpsi_us_on :      1.94s CPU      2.07s WALL (    3402 calls)
 
     cgsolve      :    430.79s CPU    509.41s WALL (   25110 calls)
     ch_psi       :    426.49s CPU    504.54s WALL (  313958 calls)
 
     ch_psi       :    426.49s CPU    504.54s WALL (  313958 calls)
     h_psi        :    409.01s CPU    484.80s WALL (  319333 calls)
     last         :     13.72s CPU     15.40s WALL (  313958 calls)
 
     h_psi        :    409.01s CPU    484.80s WALL (  319333 calls)
     add_vuspsi   :      3.13s CPU      3.53s WALL (  319333 calls)
 
     incdrhoscf   :    169.34s CPU    206.06s WALL (   25110 calls)
     addusdbec    :      0.85s CPU      0.93s WALL (   28512 calls)
 
     drhodvus     :      3.71s CPU      6.56s WALL (      15 calls)
 
      Electron-phonon coupling
     elphel       :     40.81s CPU     59.68s WALL (      15 calls)
     elphsum      :     32.37s CPU     32.78s WALL (       1 calls)
 
      General routines
     calbec       :     39.85s CPU     42.13s WALL (  702789 calls)
     fft          :      0.45s CPU      0.93s WALL (    3191 calls)
     ffts         :      0.36s CPU      0.41s WALL (    4071 calls)
     fftw         :    697.41s CPU    837.17s WALL ( 4703665 calls)
     davcio       :      4.15s CPU    134.13s WALL (  122559 calls)
     write_rec    :      0.10s CPU     20.49s WALL (     127 calls)
 
 
     PHONON       :  19m43.00s CPU  25m18.60s WALL

 
   This run was terminated on:  11:11:58  22Jul2022            

=------------------------------------------------------------------------------=
   JOB DONE.
=------------------------------------------------------------------------------=
