
     Program PHONON v.6.8 starts on 31Jul2022 at  5:56: 7 

     This program is part of the open-source Quantum ESPRESSO suite
     for quantum simulation of materials; please cite
         "P. Giannozzi et al., J. Phys.:Condens. Matter 21 395502 (2009);
         "P. Giannozzi et al., J. Phys.:Condens. Matter 29 465901 (2017);
         "P. Giannozzi et al., J. Chem. Phys. 152 154105 (2020);
          URL http://www.quantum-espresso.org", 
     in publications or presentations arising from this work. More details at
     http://www.quantum-espresso.org/quote

     Parallel version (MPI), running on    48 processors

     MPI processes distributed on     1 nodes
     K-points division:     npool     =       4
     R & G space division:  proc/nbgrp/npool/nimage =      12
     188555 MiB available memory on the printing compute node when the environment starts
 
     Waiting for input...
     Reading input from standard input

     Reading xml data from directory:

     ./tmp/Ca1H6.save/

     IMPORTANT: XC functional enforced from input :
     Exchange-correlation= PBE
                           (   1   4   3   4   0   0   0)
     Any further DFT definition will be discarded
     Please, verify this is what you really want

 
     Parallelization info
     --------------------
     sticks:   dense  smooth     PW     G-vecs:    dense   smooth      PW
     Min         139      46     17                 3602      698     155
     Max         140      47     18                 3604      701     157
     Sum        1669     557    205                43227     8391    1865
 
     Using Slab Decomposition
 
     Reading collected, re-writing distributed wavefunctions


     Dynamical matrices for ( 8, 8, 8)  uniform grid of q-points
     (  29 q-points):
       N         xq(1)         xq(2)         xq(3) 
       1   0.000000000   0.000000000   0.000000000
       2   0.108253175   0.108253175   0.000000000
       3   0.216506351   0.216506351   0.000000000
       4   0.324759526   0.324759526   0.000000000
       5  -0.433012702  -0.433012702   0.000000000
       6   0.216506351   0.108253175   0.108253175
       7   0.324759526   0.216506351   0.108253175
       8   0.433012702   0.324759526   0.108253175
       9   0.433012702   0.216506351   0.216506351
      10   0.541265877   0.324759526   0.216506351
      11   0.216506351   0.216506351   0.216506351
      12   0.324759526   0.324759526   0.216506351
      13   0.433012702   0.433012702   0.216506351
      14  -0.000000000  -0.000000000   0.216506351
      15   0.433012702   0.324759526   0.324759526
      16  -0.000000000  -0.108253175   0.324759526
      17  -0.000000000  -0.216506351   0.433012702
      18   0.108253175  -0.108253175   0.433012702
      19  -0.866025404  -0.324759526  -0.324759526
      20  -0.757772228  -0.216506351  -0.324759526
      21  -0.649519053  -0.216506351  -0.216506351
      22   0.433012702   0.433012702   0.433012702
      23  -0.000000000  -0.000000000   0.433012702
      24  -0.000000000  -0.108253175   0.541265877
      25  -0.866025404  -0.216506351  -0.216506351
      26  -0.757772228  -0.108253175  -0.216506351
      27  -0.000000000  -0.000000000   0.649519053
      28  -0.866025404  -0.108253175  -0.108253175
      29  -0.866025404  -0.866025404  -0.866025404

     Saving dvscf to file. Distribute only q points, not irreducible represetations.

     Calculation of q =    0.3247595   0.2165064   0.1082532

     Subspace diagonalization in iterative solution of the eigenvalue problem:
     a serial algorithm will be used

 
     Parallelization info
     --------------------
     sticks:   dense  smooth     PW     G-vecs:    dense   smooth      PW
     Min         139      46     17                 3602      698     155
     Max         140      47     18                 3604      701     157
     Sum        1669     557    205                43227     8391    1865
 
     Using Slab Decomposition
 

     Title: 
     Electron-phonon coefficients for Ca1H6                                     


     bravais-lattice index     =            0
     lattice parameter (alat)  =       5.5613  a.u.
     unit-cell volume          =     132.4087 (a.u.)^3
     number of atoms/cell      =            7
     number of atomic types    =            2
     number of electrons       =        16.00
     number of Kohn-Sham states=           12
     kinetic-energy cutoff     =      60.0000  Ry
     charge density cutoff     =     720.0000  Ry
     Exchange-correlation= PBE
                           (   1   4   3   4   0   0   0)

     celldm(1)=   5.561340  celldm(2)=   0.000000  celldm(3)=   0.000000
     celldm(4)=   0.000000  celldm(5)=   0.000000  celldm(6)=   0.000000

     crystal axes: (cart. coord. in units of alat)
               a(1) = (  -0.577350   0.577350   0.577350 )  
               a(2) = (   0.577350  -0.577350   0.577350 )  
               a(3) = (   0.577350   0.577350  -0.577350 )  

     reciprocal axes: (cart. coord. in units 2 pi/alat)
               b(1) = ( -0.000000  0.866025  0.866025 )  
               b(2) = (  0.866025 -0.000000  0.866025 )  
               b(3) = (  0.866025  0.866025  0.000000 )  


     PseudoPot. # 1 for Ca read from file:
     /work/home/mayuan/code/my_script/scripts_tests/out2/200.0/pp/ca_pbe_v1.uspp.F.UPF
     MD5 check sum: 403a4c14b9e4d4dfdc3024c9a3812218
     Pseudo is Ultrasoft + core correction, Zval = 10.0
     Generated by new atomic code, or converted to UPF format
     Using radial grid of  845 points,  6 beta functions with: 
                l(1) =   0
                l(2) =   0
                l(3) =   1
                l(4) =   1
                l(5) =   2
                l(6) =   2
     Q(r) pseudized with  8 coefficients,  rinner =    1.500   1.500   1.500
                                                       1.500   1.500

     PseudoPot. # 2 for H  read from file:
     /work/home/mayuan/code/my_script/scripts_tests/out2/200.0/pp/h_pbe_v1.uspp.F.UPF
     MD5 check sum: 3408e3ff4ec8b0a4e358431e7e038a48
     Pseudo is Ultrasoft, Zval =  1.0
     Generated by new atomic code, or converted to UPF format
     Using radial grid of  615 points,  2 beta functions with: 
                l(1) =   0
                l(2) =   0
     Q(r) pseudized with  8 coefficients,  rinner =    0.700

     atomic species   valence    mass     pseudopotential
        Ca            10.00    40.07800     Ca( 1.00)
        H              1.00     1.00794     H ( 1.00)

     48 Sym. Ops., with inversion, found



   Cartesian axes

     site n.     atom                  positions (alat units)
         1           Ca  tau(   1) = (   0.0000000   0.0000000   0.0000000  )
         2           H   tau(   2) = (   0.2886751   0.0000000   0.5773503  )
         3           H   tau(   3) = (   0.2886751   0.5773503   0.0000000  )
         4           H   tau(   4) = (   0.5773503   0.2886751   0.0000000  )
         5           H   tau(   5) = (   0.0000000   0.2886751   0.5773503  )
         6           H   tau(   6) = (   0.0000000   0.5773503   0.2886751  )
         7           H   tau(   7) = (   0.5773503   0.0000000   0.2886751  )

     number of k points=  8192  Methfessel-Paxton smearing, width (Ry)=  0.0200

     Number of k-points >= 100: set verbosity='high' to print them.

     Dense  grid:    43227 G-vectors     FFT dimensions: (  48,  48,  48)

     Smooth grid:     8391 G-vectors     FFT dimensions: (  27,  27,  27)

     Estimated max dynamical RAM per process >       8.33 MB

     Estimated total dynamical RAM >     400.02 MB

     The potential is recalculated from file :
     ./tmp/_ph0/Ca1H6.q_7/Ca1H6.save/charge-density

     Starting wfcs are   16 atomic wfcs

     Band Structure Calculation
     Davidson diagonalization with overlap

     ethr =  6.25E-11,  avg # of iterations = 15.1

     total cpu time spent up to now is      177.0 secs

     End of band structure calculation

     Number of k-points >= 100: set verbosity='high' to print the bands.

     the Fermi energy is    17.0980 ev

     Writing output data file ./tmp/_ph0/Ca1H6.q_7/Ca1H6.save/

     Electron-phonon coefficients for Ca1H6                                     

     bravais-lattice index     =            0
     lattice parameter (alat)  =       5.5613  a.u.
     unit-cell volume          =     132.4087 (a.u.)^3
     number of atoms/cell      =            7
     number of atomic types    =            2
     kinetic-energy cut-off    =      60.0000  Ry
     charge density cut-off    =     720.0000  Ry
     convergence threshold     =      1.0E-16
     beta                      =       0.7000
     number of iterations used =            4
     Exchange-correlation= PBE
                           (   1   4   3   4   0   0   0)


     celldm(1)=    5.56134  celldm(2)=    0.00000  celldm(3)=    0.00000
     celldm(4)=    0.00000  celldm(5)=    0.00000  celldm(6)=    0.00000

     crystal axes: (cart. coord. in units of alat)
               a(1) = ( -0.5774  0.5774  0.5774 )  
               a(2) = (  0.5774 -0.5774  0.5774 )  
               a(3) = (  0.5774  0.5774 -0.5774 )  

     reciprocal axes: (cart. coord. in units 2 pi/alat)
               b(1) = ( -0.0000  0.8660  0.8660 )  
               b(2) = (  0.8660 -0.0000  0.8660 )  
               b(3) = (  0.8660  0.8660  0.0000 )  


     Atoms inside the unit cell: 

     Cartesian axes

     site n.  atom      mass           positions (alat units)
        1     Ca  40.0780   tau(    1) = (    0.00000    0.00000    0.00000  )
        2     H    1.0079   tau(    2) = (    0.28868    0.00000    0.57735  )
        3     H    1.0079   tau(    3) = (    0.28868    0.57735    0.00000  )
        4     H    1.0079   tau(    4) = (    0.57735    0.28868    0.00000  )
        5     H    1.0079   tau(    5) = (    0.00000    0.28868    0.57735  )
        6     H    1.0079   tau(    6) = (    0.00000    0.57735    0.28868  )
        7     H    1.0079   tau(    7) = (    0.57735    0.00000    0.28868  )

     Computing dynamical matrix for 
                    q = (   0.3247595   0.2165064   0.1082532 )
 
     No symmetry!

     G cutoff =  564.0682  (   3604 G-vectors)     FFT grid: ( 48, 48, 48)
     G cutoff =  188.0227  (    699 G-vectors)  smooth grid: ( 27, 27, 27)

     number of k points=  8192  Methfessel-Paxton smearing, width (Ry)=  0.0200

     PseudoPot. # 1 for Ca read from file:
     /work/home/mayuan/code/my_script/scripts_tests/out2/200.0/pp/ca_pbe_v1.uspp.F.UPF
     MD5 check sum: 403a4c14b9e4d4dfdc3024c9a3812218
     Pseudo is Ultrasoft + core correction, Zval = 10.0
     Generated by new atomic code, or converted to UPF format
     Using radial grid of  845 points,  6 beta functions with: 
                l(1) =   0
                l(2) =   0
                l(3) =   1
                l(4) =   1
                l(5) =   2
                l(6) =   2
     Q(r) pseudized with  8 coefficients,  rinner =    1.500   1.500   1.500
                                                       1.500   1.500

     PseudoPot. # 2 for H  read from file:
     /work/home/mayuan/code/my_script/scripts_tests/out2/200.0/pp/h_pbe_v1.uspp.F.UPF
     MD5 check sum: 3408e3ff4ec8b0a4e358431e7e038a48
     Pseudo is Ultrasoft, Zval =  1.0
     Generated by new atomic code, or converted to UPF format
     Using radial grid of  615 points,  2 beta functions with: 
                l(1) =   0
                l(2) =   0
     Q(r) pseudized with  8 coefficients,  rinner =    0.700

     Mode symmetry, C_1 (1)     point group:


     Atomic displacements:
     There are   21 irreducible representations

     Representation     1      1 modes -  To be done

     Representation     2      1 modes -  To be done

     Representation     3      1 modes -  To be done

     Representation     4      1 modes -  To be done

     Representation     5      1 modes -  To be done

     Representation     6      1 modes -  To be done

     Representation     7      1 modes -  To be done

     Representation     8      1 modes -  To be done

     Representation     9      1 modes -  To be done

     Representation    10      1 modes -  To be done

     Representation    11      1 modes -  To be done

     Representation    12      1 modes -  To be done

     Representation    13      1 modes -  To be done

     Representation    14      1 modes -  To be done

     Representation    15      1 modes -  To be done

     Representation    16      1 modes -  To be done

     Representation    17      1 modes -  To be done

     Representation    18      1 modes -  To be done

     Representation    19      1 modes -  To be done

     Representation    20      1 modes -  To be done

     Representation    21      1 modes -  To be done



     Alpha used in Ewald sum =   2.8000
     PHONON       :   3m10.02s CPU   3m34.66s WALL



     Representation #   1 mode #   1

     Self-consistent Calculation

      iter #   1 total cpu time :   228.9 secs   av.it.:   4.2
      thresh= 1.000E-02 alpha_mix =  0.700 |ddv_scf|^2 =  1.223E-05

      iter #   2 total cpu time :   273.1 secs   av.it.:   9.1
      thresh= 3.498E-04 alpha_mix =  0.700 |ddv_scf|^2 =  1.679E-04

      iter #   3 total cpu time :   315.7 secs   av.it.:   7.5
      thresh= 1.296E-03 alpha_mix =  0.700 |ddv_scf|^2 =  3.045E-08

      iter #   4 total cpu time :   356.6 secs   av.it.:   9.7
      thresh= 1.745E-05 alpha_mix =  0.700 |ddv_scf|^2 =  1.261E-09

      iter #   5 total cpu time :   395.8 secs   av.it.:   9.6
      thresh= 3.551E-06 alpha_mix =  0.700 |ddv_scf|^2 =  4.051E-11

      iter #   6 total cpu time :   435.3 secs   av.it.:   9.9
      thresh= 6.365E-07 alpha_mix =  0.700 |ddv_scf|^2 =  3.045E-12

      iter #   7 total cpu time :   477.0 secs   av.it.:   9.8
      thresh= 1.745E-07 alpha_mix =  0.700 |ddv_scf|^2 =  3.209E-12

      iter #   8 total cpu time :   517.3 secs   av.it.:   8.4
      thresh= 1.791E-07 alpha_mix =  0.700 |ddv_scf|^2 =  4.260E-12

      iter #   9 total cpu time :   555.0 secs   av.it.:   8.2
      thresh= 2.064E-07 alpha_mix =  0.700 |ddv_scf|^2 =  3.734E-12

      iter #  10 total cpu time :   591.6 secs   av.it.:   7.8
      thresh= 1.932E-07 alpha_mix =  0.700 |ddv_scf|^2 =  9.236E-15

      iter #  11 total cpu time :   632.6 secs   av.it.:   9.9
      thresh= 9.610E-09 alpha_mix =  0.700 |ddv_scf|^2 =  1.323E-15

      iter #  12 total cpu time :   680.4 secs   av.it.:   9.7
      thresh= 3.638E-09 alpha_mix =  0.700 |ddv_scf|^2 =  1.830E-16

      iter #  13 total cpu time :   719.4 secs   av.it.:   9.7
      thresh= 1.353E-09 alpha_mix =  0.700 |ddv_scf|^2 =  2.217E-17

     End of self-consistent calculation

     Convergence has been achieved 


     Representation #   2 mode #   2

     Self-consistent Calculation

      iter #   1 total cpu time :   748.0 secs   av.it.:   4.1
      thresh= 1.000E-02 alpha_mix =  0.700 |ddv_scf|^2 =  5.675E-06

      iter #   2 total cpu time :   777.5 secs   av.it.:   9.2
      thresh= 2.382E-04 alpha_mix =  0.700 |ddv_scf|^2 =  7.743E-05

      iter #   3 total cpu time :   811.2 secs   av.it.:   7.5
      thresh= 8.800E-04 alpha_mix =  0.700 |ddv_scf|^2 =  1.859E-08

      iter #   4 total cpu time :   840.4 secs   av.it.:   9.5
      thresh= 1.363E-05 alpha_mix =  0.700 |ddv_scf|^2 =  7.653E-10

      iter #   5 total cpu time :   869.7 secs   av.it.:   9.6
      thresh= 2.766E-06 alpha_mix =  0.700 |ddv_scf|^2 =  3.778E-11

      iter #   6 total cpu time :   906.4 secs   av.it.:   9.8
      thresh= 6.147E-07 alpha_mix =  0.700 |ddv_scf|^2 =  3.419E-12

      iter #   7 total cpu time :   938.5 secs   av.it.:   9.7
      thresh= 1.849E-07 alpha_mix =  0.700 |ddv_scf|^2 =  1.048E-13

      iter #   8 total cpu time :   974.6 secs   av.it.:   9.9
      thresh= 3.238E-08 alpha_mix =  0.700 |ddv_scf|^2 =  3.634E-13

      iter #   9 total cpu time :  1004.7 secs   av.it.:   8.0
      thresh= 6.028E-08 alpha_mix =  0.700 |ddv_scf|^2 =  1.134E-13

      iter #  10 total cpu time :  1038.6 secs   av.it.:   8.5
      thresh= 3.368E-08 alpha_mix =  0.700 |ddv_scf|^2 =  4.909E-14

      iter #  11 total cpu time :  1073.0 secs   av.it.:   8.2
      thresh= 2.216E-08 alpha_mix =  0.700 |ddv_scf|^2 =  2.426E-16

      iter #  12 total cpu time :  1104.0 secs   av.it.:   9.8
      thresh= 1.558E-09 alpha_mix =  0.700 |ddv_scf|^2 =  4.766E-17

     End of self-consistent calculation

     Convergence has been achieved 


     Representation #   3 mode #   3

     Self-consistent Calculation

      iter #   1 total cpu time :  1130.7 secs   av.it.:   4.1
      thresh= 1.000E-02 alpha_mix =  0.700 |ddv_scf|^2 =  7.002E-06

      iter #   2 total cpu time :  1159.8 secs   av.it.:   9.2
      thresh= 2.646E-04 alpha_mix =  0.700 |ddv_scf|^2 =  9.588E-05

      iter #   3 total cpu time :  1183.0 secs   av.it.:   7.5
      thresh= 9.792E-04 alpha_mix =  0.700 |ddv_scf|^2 =  1.586E-08

      iter #   4 total cpu time :  1209.7 secs   av.it.:   9.7
      thresh= 1.259E-05 alpha_mix =  0.700 |ddv_scf|^2 =  8.193E-10

      iter #   5 total cpu time :  1238.7 secs   av.it.:   9.6
      thresh= 2.862E-06 alpha_mix =  0.700 |ddv_scf|^2 =  4.309E-11

      iter #   6 total cpu time :  1267.6 secs   av.it.:   9.8
      thresh= 6.565E-07 alpha_mix =  0.700 |ddv_scf|^2 =  2.651E-12

      iter #   7 total cpu time :  1300.0 secs   av.it.:   9.8
      thresh= 1.628E-07 alpha_mix =  0.700 |ddv_scf|^2 =  5.107E-13

      iter #   8 total cpu time :  1330.5 secs   av.it.:   9.4
      thresh= 7.146E-08 alpha_mix =  0.700 |ddv_scf|^2 =  1.998E-12

      iter #   9 total cpu time :  1355.3 secs   av.it.:   8.0
      thresh= 1.413E-07 alpha_mix =  0.700 |ddv_scf|^2 =  6.408E-13

      iter #  10 total cpu time :  1386.8 secs   av.it.:   7.9
      thresh= 8.005E-08 alpha_mix =  0.700 |ddv_scf|^2 =  4.006E-14

      iter #  11 total cpu time :  1420.4 secs   av.it.:   8.8
      thresh= 2.002E-08 alpha_mix =  0.700 |ddv_scf|^2 =  4.662E-16

      iter #  12 total cpu time :  1451.0 secs   av.it.:   9.8
      thresh= 2.159E-09 alpha_mix =  0.700 |ddv_scf|^2 =  1.304E-16

      iter #  13 total cpu time :  1493.8 secs   av.it.:   9.5
      thresh= 1.142E-09 alpha_mix =  0.700 |ddv_scf|^2 =  8.327E-18

     End of self-consistent calculation

     Convergence has been achieved 


     Representation #   4 mode #   4

     Self-consistent Calculation

      iter #   1 total cpu time :  1522.4 secs   av.it.:   3.9
      thresh= 1.000E-02 alpha_mix =  0.700 |ddv_scf|^2 =  2.522E-06

      iter #   2 total cpu time :  1548.7 secs   av.it.:   9.2
      thresh= 1.588E-04 alpha_mix =  0.700 |ddv_scf|^2 =  3.324E-05

      iter #   3 total cpu time :  1575.9 secs   av.it.:   7.6
      thresh= 5.765E-04 alpha_mix =  0.700 |ddv_scf|^2 =  1.726E-08

      iter #   4 total cpu time :  1604.0 secs   av.it.:   9.6
      thresh= 1.314E-05 alpha_mix =  0.700 |ddv_scf|^2 =  6.930E-10

      iter #   5 total cpu time :  1640.8 secs   av.it.:   9.6
      thresh= 2.632E-06 alpha_mix =  0.700 |ddv_scf|^2 =  4.478E-11

      iter #   6 total cpu time :  1673.3 secs   av.it.:   9.7
      thresh= 6.692E-07 alpha_mix =  0.700 |ddv_scf|^2 =  1.716E-12

      iter #   7 total cpu time :  1711.1 secs   av.it.:   9.8
      thresh= 1.310E-07 alpha_mix =  0.700 |ddv_scf|^2 =  1.142E-12

      iter #   8 total cpu time :  1748.3 secs   av.it.:   8.8
      thresh= 1.069E-07 alpha_mix =  0.700 |ddv_scf|^2 =  2.798E-12

      iter #   9 total cpu time :  1780.7 secs   av.it.:   8.0
      thresh= 1.673E-07 alpha_mix =  0.700 |ddv_scf|^2 =  9.319E-13

      iter #  10 total cpu time :  1810.1 secs   av.it.:   7.9
      thresh= 9.654E-08 alpha_mix =  0.700 |ddv_scf|^2 =  1.148E-14

      iter #  11 total cpu time :  1846.6 secs   av.it.:   9.5
      thresh= 1.071E-08 alpha_mix =  0.700 |ddv_scf|^2 =  7.113E-16

      iter #  12 total cpu time :  1885.5 secs   av.it.:   9.7
      thresh= 2.667E-09 alpha_mix =  0.700 |ddv_scf|^2 =  1.203E-16

      iter #  13 total cpu time :  1924.2 secs   av.it.:   9.5
      thresh= 1.097E-09 alpha_mix =  0.700 |ddv_scf|^2 =  1.023E-17

     End of self-consistent calculation

     Convergence has been achieved 


     Representation #   5 mode #   5

     Self-consistent Calculation

      iter #   1 total cpu time :  1961.1 secs   av.it.:   7.2
      thresh= 1.000E-02 alpha_mix =  0.700 |ddv_scf|^2 =  1.133E-03

      iter #   2 total cpu time :  1989.6 secs   av.it.:   9.2
      thresh= 3.366E-03 alpha_mix =  0.700 |ddv_scf|^2 =  1.590E-02

      iter #   3 total cpu time :  2021.5 secs   av.it.:   7.8
      thresh= 1.000E-02 alpha_mix =  0.700 |ddv_scf|^2 =  3.546E-06

      iter #   4 total cpu time :  2055.6 secs   av.it.:   9.5
      thresh= 1.883E-04 alpha_mix =  0.700 |ddv_scf|^2 =  9.270E-08

      iter #   5 total cpu time :  2087.4 secs   av.it.:   9.4
      thresh= 3.045E-05 alpha_mix =  0.700 |ddv_scf|^2 =  3.016E-09

      iter #   6 total cpu time :  2119.8 secs   av.it.:   9.2
      thresh= 5.492E-06 alpha_mix =  0.700 |ddv_scf|^2 =  1.948E-10

      iter #   7 total cpu time :  2157.9 secs   av.it.:   9.0
      thresh= 1.396E-06 alpha_mix =  0.700 |ddv_scf|^2 =  2.296E-12

      iter #   8 total cpu time :  2200.4 secs   av.it.:   9.9
      thresh= 1.515E-07 alpha_mix =  0.700 |ddv_scf|^2 =  4.670E-13

      iter #   9 total cpu time :  2232.6 secs   av.it.:   9.3
      thresh= 6.834E-08 alpha_mix =  0.700 |ddv_scf|^2 =  5.389E-13

      iter #  10 total cpu time :  2265.1 secs   av.it.:   8.0
      thresh= 7.341E-08 alpha_mix =  0.700 |ddv_scf|^2 =  6.118E-14

      iter #  11 total cpu time :  2301.9 secs   av.it.:   8.7
      thresh= 2.474E-08 alpha_mix =  0.700 |ddv_scf|^2 =  1.569E-15

      iter #  12 total cpu time :  2340.6 secs   av.it.:   9.3
      thresh= 3.961E-09 alpha_mix =  0.700 |ddv_scf|^2 =  1.468E-16

      iter #  13 total cpu time :  2381.1 secs   av.it.:   9.4
      thresh= 1.212E-09 alpha_mix =  0.700 |ddv_scf|^2 =  1.471E-17

     End of self-consistent calculation

     Convergence has been achieved 


     Representation #   6 mode #   6

     Self-consistent Calculation

      iter #   1 total cpu time :  2409.7 secs   av.it.:   4.0
      thresh= 1.000E-02 alpha_mix =  0.700 |ddv_scf|^2 =  2.956E-06

      iter #   2 total cpu time :  2439.0 secs   av.it.:   9.2
      thresh= 1.719E-04 alpha_mix =  0.700 |ddv_scf|^2 =  3.863E-05

      iter #   3 total cpu time :  2474.1 secs   av.it.:   7.6
      thresh= 6.215E-04 alpha_mix =  0.700 |ddv_scf|^2 =  2.777E-08

      iter #   4 total cpu time :  2507.0 secs   av.it.:   9.4
      thresh= 1.667E-05 alpha_mix =  0.700 |ddv_scf|^2 =  1.036E-09

      iter #   5 total cpu time :  2546.8 secs   av.it.:   9.6
      thresh= 3.218E-06 alpha_mix =  0.700 |ddv_scf|^2 =  2.787E-11

      iter #   6 total cpu time :  2581.5 secs   av.it.:   9.9
      thresh= 5.280E-07 alpha_mix =  0.700 |ddv_scf|^2 =  1.533E-12

      iter #   7 total cpu time :  2617.4 secs   av.it.:   9.8
      thresh= 1.238E-07 alpha_mix =  0.700 |ddv_scf|^2 =  3.206E-13

      iter #   8 total cpu time :  2649.6 secs   av.it.:   9.2
      thresh= 5.662E-08 alpha_mix =  0.700 |ddv_scf|^2 =  1.899E-12

      iter #   9 total cpu time :  2675.7 secs   av.it.:   7.8
      thresh= 1.378E-07 alpha_mix =  0.700 |ddv_scf|^2 =  3.383E-13

      iter #  10 total cpu time :  2706.3 secs   av.it.:   7.8
      thresh= 5.816E-08 alpha_mix =  0.700 |ddv_scf|^2 =  1.301E-14

      iter #  11 total cpu time :  2735.2 secs   av.it.:   9.0
      thresh= 1.141E-08 alpha_mix =  0.700 |ddv_scf|^2 =  2.364E-16

      iter #  12 total cpu time :  2768.2 secs   av.it.:   9.9
      thresh= 1.538E-09 alpha_mix =  0.700 |ddv_scf|^2 =  4.531E-17

     End of self-consistent calculation

     Convergence has been achieved 


     Representation #   7 mode #   7

     Self-consistent Calculation

      iter #   1 total cpu time :  2796.4 secs   av.it.:   3.9
      thresh= 1.000E-02 alpha_mix =  0.700 |ddv_scf|^2 =  1.727E-06

      iter #   2 total cpu time :  2823.4 secs   av.it.:   9.2
      thresh= 1.314E-04 alpha_mix =  0.700 |ddv_scf|^2 =  2.233E-05

      iter #   3 total cpu time :  2858.3 secs   av.it.:   7.6
      thresh= 4.725E-04 alpha_mix =  0.700 |ddv_scf|^2 =  1.781E-08

      iter #   4 total cpu time :  2892.5 secs   av.it.:   9.5
      thresh= 1.335E-05 alpha_mix =  0.700 |ddv_scf|^2 =  7.769E-10

      iter #   5 total cpu time :  2926.9 secs   av.it.:   9.6
      thresh= 2.787E-06 alpha_mix =  0.700 |ddv_scf|^2 =  3.784E-11

      iter #   6 total cpu time :  2960.9 secs   av.it.:   9.8
      thresh= 6.151E-07 alpha_mix =  0.700 |ddv_scf|^2 =  1.611E-12

      iter #   7 total cpu time :  2995.3 secs   av.it.:   9.9
      thresh= 1.269E-07 alpha_mix =  0.700 |ddv_scf|^2 =  8.567E-13

      iter #   8 total cpu time :  3036.3 secs   av.it.:   8.8
      thresh= 9.256E-08 alpha_mix =  0.700 |ddv_scf|^2 =  1.694E-12

      iter #   9 total cpu time :  3071.5 secs   av.it.:   8.4
      thresh= 1.302E-07 alpha_mix =  0.700 |ddv_scf|^2 =  9.340E-13

      iter #  10 total cpu time :  3108.7 secs   av.it.:   7.7
      thresh= 9.664E-08 alpha_mix =  0.700 |ddv_scf|^2 =  1.678E-14

      iter #  11 total cpu time :  3147.2 secs   av.it.:   9.3
      thresh= 1.295E-08 alpha_mix =  0.700 |ddv_scf|^2 =  6.825E-16

      iter #  12 total cpu time :  3186.4 secs   av.it.:   9.8
      thresh= 2.612E-09 alpha_mix =  0.700 |ddv_scf|^2 =  1.155E-16

      iter #  13 total cpu time :  3228.2 secs   av.it.:   9.6
      thresh= 1.075E-09 alpha_mix =  0.700 |ddv_scf|^2 =  9.803E-18

     End of self-consistent calculation

     Convergence has been achieved 


     Representation #   8 mode #   8

     Self-consistent Calculation

      iter #   1 total cpu time :  3253.2 secs   av.it.:   3.9
      thresh= 1.000E-02 alpha_mix =  0.700 |ddv_scf|^2 =  1.156E-06

      iter #   2 total cpu time :  3285.1 secs   av.it.:   9.3
      thresh= 1.075E-04 alpha_mix =  0.700 |ddv_scf|^2 =  1.452E-05

      iter #   3 total cpu time :  3313.4 secs   av.it.:   7.6
      thresh= 3.810E-04 alpha_mix =  0.700 |ddv_scf|^2 =  1.669E-08

      iter #   4 total cpu time :  3347.4 secs   av.it.:   9.6
      thresh= 1.292E-05 alpha_mix =  0.700 |ddv_scf|^2 =  6.640E-10

      iter #   5 total cpu time :  3381.8 secs   av.it.:   9.7
      thresh= 2.577E-06 alpha_mix =  0.700 |ddv_scf|^2 =  3.525E-11

      iter #   6 total cpu time :  3417.2 secs   av.it.:   9.7
      thresh= 5.937E-07 alpha_mix =  0.700 |ddv_scf|^2 =  2.149E-12

      iter #   7 total cpu time :  3455.3 secs   av.it.:   9.7
      thresh= 1.466E-07 alpha_mix =  0.700 |ddv_scf|^2 =  9.519E-13

      iter #   8 total cpu time :  3488.8 secs   av.it.:   9.0
      thresh= 9.757E-08 alpha_mix =  0.700 |ddv_scf|^2 =  4.346E-12

      iter #   9 total cpu time :  3527.1 secs   av.it.:   7.8
      thresh= 2.085E-07 alpha_mix =  0.700 |ddv_scf|^2 =  2.403E-13

      iter #  10 total cpu time :  3559.2 secs   av.it.:   8.3
      thresh= 4.902E-08 alpha_mix =  0.700 |ddv_scf|^2 =  2.204E-14

      iter #  11 total cpu time :  3590.5 secs   av.it.:   9.0
      thresh= 1.485E-08 alpha_mix =  0.700 |ddv_scf|^2 =  4.708E-16

      iter #  12 total cpu time :  3626.5 secs   av.it.:   9.8
      thresh= 2.170E-09 alpha_mix =  0.700 |ddv_scf|^2 =  7.520E-17

     End of self-consistent calculation

     Convergence has been achieved 


     Representation #   9 mode #   9

     Self-consistent Calculation

      iter #   1 total cpu time :  3656.3 secs   av.it.:   4.1
      thresh= 1.000E-02 alpha_mix =  0.700 |ddv_scf|^2 =  6.002E-06

      iter #   2 total cpu time :  3688.2 secs   av.it.:   9.2
      thresh= 2.450E-04 alpha_mix =  0.700 |ddv_scf|^2 =  8.084E-05

      iter #   3 total cpu time :  3726.6 secs   av.it.:   7.6
      thresh= 8.991E-04 alpha_mix =  0.700 |ddv_scf|^2 =  3.530E-08

      iter #   4 total cpu time :  3759.8 secs   av.it.:   9.5
      thresh= 1.879E-05 alpha_mix =  0.700 |ddv_scf|^2 =  1.013E-09

      iter #   5 total cpu time :  3793.6 secs   av.it.:   9.7
      thresh= 3.182E-06 alpha_mix =  0.700 |ddv_scf|^2 =  2.386E-11

      iter #   6 total cpu time :  3831.9 secs   av.it.:   9.9
      thresh= 4.885E-07 alpha_mix =  0.700 |ddv_scf|^2 =  1.714E-12

      iter #   7 total cpu time :  3876.3 secs   av.it.:   9.8
      thresh= 1.309E-07 alpha_mix =  0.700 |ddv_scf|^2 =  7.842E-12

      iter #   8 total cpu time :  3918.2 secs   av.it.:   7.8
      thresh= 2.800E-07 alpha_mix =  0.700 |ddv_scf|^2 =  1.804E-12

      iter #   9 total cpu time :  3955.9 secs   av.it.:   8.3
      thresh= 1.343E-07 alpha_mix =  0.700 |ddv_scf|^2 =  2.093E-12

      iter #  10 total cpu time :  3996.7 secs   av.it.:   8.1
      thresh= 1.447E-07 alpha_mix =  0.700 |ddv_scf|^2 =  7.656E-15

      iter #  11 total cpu time :  4034.5 secs   av.it.:   9.8
      thresh= 8.750E-09 alpha_mix =  0.700 |ddv_scf|^2 =  1.291E-15

      iter #  12 total cpu time :  4076.3 secs   av.it.:   9.7
      thresh= 3.593E-09 alpha_mix =  0.700 |ddv_scf|^2 =  5.957E-17

     End of self-consistent calculation

     Convergence has been achieved 


     Representation #  10 mode #  10

     Self-consistent Calculation

      iter #   1 total cpu time :  4106.3 secs   av.it.:   4.0
      thresh= 1.000E-02 alpha_mix =  0.700 |ddv_scf|^2 =  9.285E-07

      iter #   2 total cpu time :  4133.9 secs   av.it.:   9.5
      thresh= 9.636E-05 alpha_mix =  0.700 |ddv_scf|^2 =  1.112E-05

      iter #   3 total cpu time :  4162.5 secs   av.it.:   7.6
      thresh= 3.335E-04 alpha_mix =  0.700 |ddv_scf|^2 =  3.107E-08

      iter #   4 total cpu time :  4201.0 secs   av.it.:   9.4
      thresh= 1.763E-05 alpha_mix =  0.700 |ddv_scf|^2 =  6.836E-10

      iter #   5 total cpu time :  4234.6 secs   av.it.:   9.7
      thresh= 2.615E-06 alpha_mix =  0.700 |ddv_scf|^2 =  3.721E-11

      iter #   6 total cpu time :  4274.1 secs   av.it.:   9.9
      thresh= 6.100E-07 alpha_mix =  0.700 |ddv_scf|^2 =  2.369E-12

      iter #   7 total cpu time :  4307.2 secs   av.it.:   9.8
      thresh= 1.539E-07 alpha_mix =  0.700 |ddv_scf|^2 =  3.750E-12

      iter #   8 total cpu time :  4343.2 secs   av.it.:   8.4
      thresh= 1.937E-07 alpha_mix =  0.700 |ddv_scf|^2 =  2.530E-12

      iter #   9 total cpu time :  4383.7 secs   av.it.:   8.3
      thresh= 1.591E-07 alpha_mix =  0.700 |ddv_scf|^2 =  2.249E-12

      iter #  10 total cpu time :  4444.9 secs   av.it.:   7.9
      thresh= 1.500E-07 alpha_mix =  0.700 |ddv_scf|^2 =  1.201E-14

      iter #  11 total cpu time :  4495.8 secs   av.it.:   9.8
      thresh= 1.096E-08 alpha_mix =  0.700 |ddv_scf|^2 =  1.881E-15

      iter #  12 total cpu time :  4530.3 secs   av.it.:   9.6
      thresh= 4.337E-09 alpha_mix =  0.700 |ddv_scf|^2 =  1.799E-16

      iter #  13 total cpu time :  4569.2 secs   av.it.:   9.7
      thresh= 1.341E-09 alpha_mix =  0.700 |ddv_scf|^2 =  3.930E-17

     End of self-consistent calculation

     Convergence has been achieved 


     Representation #  11 mode #  11

     Self-consistent Calculation

      iter #   1 total cpu time :  4606.6 secs   av.it.:   4.0
      thresh= 1.000E-02 alpha_mix =  0.700 |ddv_scf|^2 =  1.904E-06

      iter #   2 total cpu time :  4635.4 secs   av.it.:   9.4
      thresh= 1.380E-04 alpha_mix =  0.700 |ddv_scf|^2 =  2.490E-05

      iter #   3 total cpu time :  4671.9 secs   av.it.:   7.6
      thresh= 4.989E-04 alpha_mix =  0.700 |ddv_scf|^2 =  2.498E-08

      iter #   4 total cpu time :  4706.8 secs   av.it.:   9.7
      thresh= 1.580E-05 alpha_mix =  0.700 |ddv_scf|^2 =  8.537E-10

      iter #   5 total cpu time :  4743.0 secs   av.it.:   9.7
      thresh= 2.922E-06 alpha_mix =  0.700 |ddv_scf|^2 =  2.746E-11

      iter #   6 total cpu time :  4776.7 secs   av.it.:   9.8
      thresh= 5.240E-07 alpha_mix =  0.700 |ddv_scf|^2 =  2.356E-12

      iter #   7 total cpu time :  4814.0 secs   av.it.:   9.8
      thresh= 1.535E-07 alpha_mix =  0.700 |ddv_scf|^2 =  5.806E-12

      iter #   8 total cpu time :  4854.6 secs   av.it.:   8.1
      thresh= 2.410E-07 alpha_mix =  0.700 |ddv_scf|^2 =  2.380E-12

      iter #   9 total cpu time :  4896.9 secs   av.it.:   8.4
      thresh= 1.543E-07 alpha_mix =  0.700 |ddv_scf|^2 =  2.371E-12

      iter #  10 total cpu time :  4939.2 secs   av.it.:   8.0
      thresh= 1.540E-07 alpha_mix =  0.700 |ddv_scf|^2 =  6.470E-15

      iter #  11 total cpu time :  4992.7 secs   av.it.:   9.9
      thresh= 8.044E-09 alpha_mix =  0.700 |ddv_scf|^2 =  1.557E-15

      iter #  12 total cpu time :  5041.6 secs   av.it.:   9.6
      thresh= 3.946E-09 alpha_mix =  0.700 |ddv_scf|^2 =  1.100E-16

      iter #  13 total cpu time :  5081.8 secs   av.it.:   9.7
      thresh= 1.049E-09 alpha_mix =  0.700 |ddv_scf|^2 =  4.423E-17

     End of self-consistent calculation

     Convergence has been achieved 


     Representation #  12 mode #  12

     Self-consistent Calculation

      iter #   1 total cpu time :  5112.8 secs   av.it.:   3.9
      thresh= 1.000E-02 alpha_mix =  0.700 |ddv_scf|^2 =  1.271E-06

      iter #   2 total cpu time :  5142.1 secs   av.it.:   9.3
      thresh= 1.128E-04 alpha_mix =  0.700 |ddv_scf|^2 =  1.513E-05

      iter #   3 total cpu time :  5173.7 secs   av.it.:   7.6
      thresh= 3.890E-04 alpha_mix =  0.700 |ddv_scf|^2 =  4.440E-08

      iter #   4 total cpu time :  5213.7 secs   av.it.:   9.2
      thresh= 2.107E-05 alpha_mix =  0.700 |ddv_scf|^2 =  7.421E-10

      iter #   5 total cpu time :  5256.4 secs   av.it.:   9.7
      thresh= 2.724E-06 alpha_mix =  0.700 |ddv_scf|^2 =  3.956E-11

      iter #   6 total cpu time :  5302.9 secs   av.it.:   9.8
      thresh= 6.290E-07 alpha_mix =  0.700 |ddv_scf|^2 =  1.886E-12

      iter #   7 total cpu time :  5351.8 secs   av.it.:   9.8
      thresh= 1.373E-07 alpha_mix =  0.700 |ddv_scf|^2 =  1.465E-13

      iter #   8 total cpu time :  5393.8 secs   av.it.:   9.9
      thresh= 3.828E-08 alpha_mix =  0.700 |ddv_scf|^2 =  5.554E-13

      iter #   9 total cpu time :  5432.8 secs   av.it.:   7.9
      thresh= 7.452E-08 alpha_mix =  0.700 |ddv_scf|^2 =  3.349E-14

      iter #  10 total cpu time :  5483.3 secs   av.it.:   8.9
      thresh= 1.830E-08 alpha_mix =  0.700 |ddv_scf|^2 =  5.274E-15

      iter #  11 total cpu time :  5529.9 secs   av.it.:   8.7
      thresh= 7.262E-09 alpha_mix =  0.700 |ddv_scf|^2 =  2.574E-15

      iter #  12 total cpu time :  5571.9 secs   av.it.:   8.6
      thresh= 5.074E-09 alpha_mix =  0.700 |ddv_scf|^2 =  5.236E-17

     End of self-consistent calculation

     Convergence has been achieved 


     Representation #  13 mode #  13

     Self-consistent Calculation

      iter #   1 total cpu time :  5604.3 secs   av.it.:   4.0
      thresh= 1.000E-02 alpha_mix =  0.700 |ddv_scf|^2 =  1.060E-06

      iter #   2 total cpu time :  5641.1 secs   av.it.:   9.4
      thresh= 1.030E-04 alpha_mix =  0.700 |ddv_scf|^2 =  1.234E-05

      iter #   3 total cpu time :  5677.7 secs   av.it.:   7.6
      thresh= 3.513E-04 alpha_mix =  0.700 |ddv_scf|^2 =  4.501E-08

      iter #   4 total cpu time :  5713.8 secs   av.it.:   9.2
      thresh= 2.121E-05 alpha_mix =  0.700 |ddv_scf|^2 =  7.333E-10

      iter #   5 total cpu time :  5750.4 secs   av.it.:   9.7
      thresh= 2.708E-06 alpha_mix =  0.700 |ddv_scf|^2 =  3.539E-11

      iter #   6 total cpu time :  5789.7 secs   av.it.:   9.9
      thresh= 5.949E-07 alpha_mix =  0.700 |ddv_scf|^2 =  2.656E-12

      iter #   7 total cpu time :  5842.5 secs   av.it.:   9.8
      thresh= 1.630E-07 alpha_mix =  0.700 |ddv_scf|^2 =  1.326E-12

      iter #   8 total cpu time :  5883.7 secs   av.it.:   8.8
      thresh= 1.151E-07 alpha_mix =  0.700 |ddv_scf|^2 =  4.147E-12

      iter #   9 total cpu time :  5927.9 secs   av.it.:   7.9
      thresh= 2.037E-07 alpha_mix =  0.700 |ddv_scf|^2 =  5.903E-13

      iter #  10 total cpu time :  5968.2 secs   av.it.:   8.0
      thresh= 7.683E-08 alpha_mix =  0.700 |ddv_scf|^2 =  1.471E-14

      iter #  11 total cpu time :  6015.4 secs   av.it.:   9.4
      thresh= 1.213E-08 alpha_mix =  0.700 |ddv_scf|^2 =  9.342E-16

      iter #  12 total cpu time :  6061.8 secs   av.it.:   9.7
      thresh= 3.056E-09 alpha_mix =  0.700 |ddv_scf|^2 =  9.864E-17

     End of self-consistent calculation

     Convergence has been achieved 


     Representation #  14 mode #  14

     Self-consistent Calculation

      iter #   1 total cpu time :  6110.5 secs   av.it.:   6.8
      thresh= 1.000E-02 alpha_mix =  0.700 |ddv_scf|^2 =  2.161E-04

      iter #   2 total cpu time :  6148.8 secs   av.it.:   9.4
      thresh= 1.470E-03 alpha_mix =  0.700 |ddv_scf|^2 =  2.871E-03

      iter #   3 total cpu time :  6181.8 secs   av.it.:   7.5
      thresh= 5.358E-03 alpha_mix =  0.700 |ddv_scf|^2 =  1.785E-06

      iter #   4 total cpu time :  6217.7 secs   av.it.:   9.6
      thresh= 1.336E-04 alpha_mix =  0.700 |ddv_scf|^2 =  1.484E-08

      iter #   5 total cpu time :  6257.2 secs   av.it.:   9.8
      thresh= 1.218E-05 alpha_mix =  0.700 |ddv_scf|^2 =  7.898E-10

      iter #   6 total cpu time :  6324.6 secs   av.it.:   9.6
      thresh= 2.810E-06 alpha_mix =  0.700 |ddv_scf|^2 =  2.345E-11

      iter #   7 total cpu time :  6366.7 secs   av.it.:   9.9
      thresh= 4.842E-07 alpha_mix =  0.700 |ddv_scf|^2 =  1.249E-11

      iter #   8 total cpu time :  6412.0 secs   av.it.:   8.9
      thresh= 3.534E-07 alpha_mix =  0.700 |ddv_scf|^2 =  1.525E-11

      iter #   9 total cpu time :  6445.4 secs   av.it.:   8.3
      thresh= 3.906E-07 alpha_mix =  0.700 |ddv_scf|^2 =  5.588E-13

      iter #  10 total cpu time :  6483.5 secs   av.it.:   9.2
      thresh= 7.475E-08 alpha_mix =  0.700 |ddv_scf|^2 =  5.565E-13

      iter #  11 total cpu time :  6523.7 secs   av.it.:   8.5
      thresh= 7.460E-08 alpha_mix =  0.700 |ddv_scf|^2 =  9.365E-15

      iter #  12 total cpu time :  6562.5 secs   av.it.:   9.4
      thresh= 9.677E-09 alpha_mix =  0.700 |ddv_scf|^2 =  2.108E-16

      iter #  13 total cpu time :  6601.3 secs   av.it.:   9.9
      thresh= 1.452E-09 alpha_mix =  0.700 |ddv_scf|^2 =  3.187E-17

     End of self-consistent calculation

     Convergence has been achieved 


     Representation #  15 mode #  15

     Self-consistent Calculation

      iter #   1 total cpu time :  6633.9 secs   av.it.:   4.1
      thresh= 1.000E-02 alpha_mix =  0.700 |ddv_scf|^2 =  4.420E-06

      iter #   2 total cpu time :  6669.3 secs   av.it.:   9.3
      thresh= 2.102E-04 alpha_mix =  0.700 |ddv_scf|^2 =  5.994E-05

      iter #   3 total cpu time :  6716.7 secs   av.it.:   7.5
      thresh= 7.742E-04 alpha_mix =  0.700 |ddv_scf|^2 =  2.704E-08

      iter #   4 total cpu time :  6773.9 secs   av.it.:   9.7
      thresh= 1.644E-05 alpha_mix =  0.700 |ddv_scf|^2 =  9.047E-10

      iter #   5 total cpu time :  6814.1 secs   av.it.:   9.7
      thresh= 3.008E-06 alpha_mix =  0.700 |ddv_scf|^2 =  2.265E-11

      iter #   6 total cpu time :  6848.6 secs   av.it.:   9.9
      thresh= 4.759E-07 alpha_mix =  0.700 |ddv_scf|^2 =  2.337E-12

      iter #   7 total cpu time :  6888.8 secs   av.it.:   9.8
      thresh= 1.529E-07 alpha_mix =  0.700 |ddv_scf|^2 =  6.900E-12

      iter #   8 total cpu time :  6917.5 secs   av.it.:   7.9
      thresh= 2.627E-07 alpha_mix =  0.700 |ddv_scf|^2 =  1.653E-12

      iter #   9 total cpu time :  6948.7 secs   av.it.:   8.6
      thresh= 1.286E-07 alpha_mix =  0.700 |ddv_scf|^2 =  3.041E-12

      iter #  10 total cpu time :  6991.5 secs   av.it.:   8.0
      thresh= 1.744E-07 alpha_mix =  0.700 |ddv_scf|^2 =  5.155E-15

      iter #  11 total cpu time :  7037.9 secs   av.it.:  10.0
      thresh= 7.180E-09 alpha_mix =  0.700 |ddv_scf|^2 =  1.103E-15

      iter #  12 total cpu time :  7074.5 secs   av.it.:   9.7
      thresh= 3.321E-09 alpha_mix =  0.700 |ddv_scf|^2 =  8.383E-17

     End of self-consistent calculation

     Convergence has been achieved 


     Representation #  16 mode #  16

     Self-consistent Calculation

      iter #   1 total cpu time :  7097.3 secs   av.it.:   4.0
      thresh= 1.000E-02 alpha_mix =  0.700 |ddv_scf|^2 =  5.802E-06

      iter #   2 total cpu time :  7124.3 secs   av.it.:   9.2
      thresh= 2.409E-04 alpha_mix =  0.700 |ddv_scf|^2 =  7.890E-05

      iter #   3 total cpu time :  7154.2 secs   av.it.:   7.5
      thresh= 8.882E-04 alpha_mix =  0.700 |ddv_scf|^2 =  2.011E-08

      iter #   4 total cpu time :  7189.4 secs   av.it.:   9.6
      thresh= 1.418E-05 alpha_mix =  0.700 |ddv_scf|^2 =  9.259E-10

      iter #   5 total cpu time :  7225.1 secs   av.it.:   9.6
      thresh= 3.043E-06 alpha_mix =  0.700 |ddv_scf|^2 =  3.709E-11

      iter #   6 total cpu time :  7261.4 secs   av.it.:   9.8
      thresh= 6.090E-07 alpha_mix =  0.700 |ddv_scf|^2 =  2.688E-12

      iter #   7 total cpu time :  7303.9 secs   av.it.:   9.8
      thresh= 1.640E-07 alpha_mix =  0.700 |ddv_scf|^2 =  1.325E-12

      iter #   8 total cpu time :  7343.9 secs   av.it.:   8.8
      thresh= 1.151E-07 alpha_mix =  0.700 |ddv_scf|^2 =  2.694E-12

      iter #   9 total cpu time :  7380.5 secs   av.it.:   8.3
      thresh= 1.641E-07 alpha_mix =  0.700 |ddv_scf|^2 =  1.708E-12

      iter #  10 total cpu time :  7413.9 secs   av.it.:   7.7
      thresh= 1.307E-07 alpha_mix =  0.700 |ddv_scf|^2 =  1.230E-14

      iter #  11 total cpu time :  7452.8 secs   av.it.:   9.6
      thresh= 1.109E-08 alpha_mix =  0.700 |ddv_scf|^2 =  7.587E-16

      iter #  12 total cpu time :  7491.0 secs   av.it.:   9.7
      thresh= 2.754E-09 alpha_mix =  0.700 |ddv_scf|^2 =  1.344E-16

      iter #  13 total cpu time :  7528.4 secs   av.it.:   9.6
      thresh= 1.159E-09 alpha_mix =  0.700 |ddv_scf|^2 =  1.251E-17

     End of self-consistent calculation

     Convergence has been achieved 


     Representation #  17 mode #  17

     Self-consistent Calculation

      iter #   1 total cpu time :  7555.9 secs   av.it.:   4.0
      thresh= 1.000E-02 alpha_mix =  0.700 |ddv_scf|^2 =  2.634E-06

      iter #   2 total cpu time :  7589.0 secs   av.it.:   9.2
      thresh= 1.623E-04 alpha_mix =  0.700 |ddv_scf|^2 =  3.506E-05

      iter #   3 total cpu time :  7613.6 secs   av.it.:   7.6
      thresh= 5.921E-04 alpha_mix =  0.700 |ddv_scf|^2 =  1.327E-08

      iter #   4 total cpu time :  7647.0 secs   av.it.:   9.7
      thresh= 1.152E-05 alpha_mix =  0.700 |ddv_scf|^2 =  6.522E-10

      iter #   5 total cpu time :  7679.8 secs   av.it.:   9.7
      thresh= 2.554E-06 alpha_mix =  0.700 |ddv_scf|^2 =  4.152E-11

      iter #   6 total cpu time :  7712.4 secs   av.it.:   9.7
      thresh= 6.443E-07 alpha_mix =  0.700 |ddv_scf|^2 =  1.810E-12

      iter #   7 total cpu time :  7751.4 secs   av.it.:   9.8
      thresh= 1.345E-07 alpha_mix =  0.700 |ddv_scf|^2 =  9.319E-13

      iter #   8 total cpu time :  7785.4 secs   av.it.:   9.0
      thresh= 9.653E-08 alpha_mix =  0.700 |ddv_scf|^2 =  3.725E-12

      iter #   9 total cpu time :  7817.2 secs   av.it.:   7.8
      thresh= 1.930E-07 alpha_mix =  0.700 |ddv_scf|^2 =  3.756E-13

      iter #  10 total cpu time :  7868.6 secs   av.it.:   8.1
      thresh= 6.129E-08 alpha_mix =  0.700 |ddv_scf|^2 =  2.132E-14

      iter #  11 total cpu time :  7916.1 secs   av.it.:   9.0
      thresh= 1.460E-08 alpha_mix =  0.700 |ddv_scf|^2 =  4.851E-16

      iter #  12 total cpu time :  7951.8 secs   av.it.:   9.9
      thresh= 2.203E-09 alpha_mix =  0.700 |ddv_scf|^2 =  1.048E-16

      iter #  13 total cpu time :  7992.8 secs   av.it.:   9.5
      thresh= 1.024E-09 alpha_mix =  0.700 |ddv_scf|^2 =  6.821E-18

     End of self-consistent calculation

     Convergence has been achieved 


     Representation #  18 mode #  18

     Self-consistent Calculation

      iter #   1 total cpu time :  8023.9 secs   av.it.:   6.8
      thresh= 1.000E-02 alpha_mix =  0.700 |ddv_scf|^2 =  1.349E-04

      iter #   2 total cpu time :  8055.0 secs   av.it.:   9.5
      thresh= 1.162E-03 alpha_mix =  0.700 |ddv_scf|^2 =  1.759E-03

      iter #   3 total cpu time :  8079.5 secs   av.it.:   7.5
      thresh= 4.195E-03 alpha_mix =  0.700 |ddv_scf|^2 =  1.505E-06

      iter #   4 total cpu time :  8115.0 secs   av.it.:   9.7
      thresh= 1.227E-04 alpha_mix =  0.700 |ddv_scf|^2 =  3.895E-08

      iter #   5 total cpu time :  8149.7 secs   av.it.:   9.6
      thresh= 1.974E-05 alpha_mix =  0.700 |ddv_scf|^2 =  1.358E-09

      iter #   6 total cpu time :  8191.7 secs   av.it.:   9.6
      thresh= 3.685E-06 alpha_mix =  0.700 |ddv_scf|^2 =  4.996E-11

      iter #   7 total cpu time :  8244.8 secs   av.it.:   9.7
      thresh= 7.068E-07 alpha_mix =  0.700 |ddv_scf|^2 =  3.895E-12

      iter #   8 total cpu time :  8358.5 secs   av.it.:   9.9
      thresh= 1.974E-07 alpha_mix =  0.700 |ddv_scf|^2 =  9.183E-12

      iter #   9 total cpu time :  8399.9 secs   av.it.:   8.1
      thresh= 3.030E-07 alpha_mix =  0.700 |ddv_scf|^2 =  4.685E-13

      iter #  10 total cpu time :  8440.8 secs   av.it.:   9.1
      thresh= 6.845E-08 alpha_mix =  0.700 |ddv_scf|^2 =  3.473E-14

      iter #  11 total cpu time :  8480.0 secs   av.it.:   8.9
      thresh= 1.864E-08 alpha_mix =  0.700 |ddv_scf|^2 =  2.565E-14

      iter #  12 total cpu time :  8520.2 secs   av.it.:   8.5
      thresh= 1.602E-08 alpha_mix =  0.700 |ddv_scf|^2 =  6.559E-16

      iter #  13 total cpu time :  8565.2 secs   av.it.:   9.4
      thresh= 2.561E-09 alpha_mix =  0.700 |ddv_scf|^2 =  1.214E-17

     End of self-consistent calculation

     Convergence has been achieved 


     Representation #  19 mode #  19

     Self-consistent Calculation

      iter #   1 total cpu time :  8596.1 secs   av.it.:   4.2
      thresh= 1.000E-02 alpha_mix =  0.700 |ddv_scf|^2 =  8.563E-06

      iter #   2 total cpu time :  8629.2 secs   av.it.:   9.2
      thresh= 2.926E-04 alpha_mix =  0.700 |ddv_scf|^2 =  1.174E-04

      iter #   3 total cpu time :  8663.2 secs   av.it.:   7.5
      thresh= 1.084E-03 alpha_mix =  0.700 |ddv_scf|^2 =  1.774E-08

      iter #   4 total cpu time :  8701.1 secs   av.it.:   9.7
      thresh= 1.332E-05 alpha_mix =  0.700 |ddv_scf|^2 =  8.159E-10

      iter #   5 total cpu time :  8734.4 secs   av.it.:   9.6
      thresh= 2.856E-06 alpha_mix =  0.700 |ddv_scf|^2 =  3.916E-11

      iter #   6 total cpu time :  8791.0 secs   av.it.:   9.8
      thresh= 6.258E-07 alpha_mix =  0.700 |ddv_scf|^2 =  3.459E-12

      iter #   7 total cpu time :  8833.6 secs   av.it.:   9.8
      thresh= 1.860E-07 alpha_mix =  0.700 |ddv_scf|^2 =  2.565E-13

      iter #   8 total cpu time :  8880.6 secs   av.it.:   9.7
      thresh= 5.065E-08 alpha_mix =  0.700 |ddv_scf|^2 =  1.052E-12

      iter #   9 total cpu time :  8918.5 secs   av.it.:   7.9
      thresh= 1.026E-07 alpha_mix =  0.700 |ddv_scf|^2 =  4.311E-13

      iter #  10 total cpu time :  8961.0 secs   av.it.:   7.9
      thresh= 6.566E-08 alpha_mix =  0.700 |ddv_scf|^2 =  4.184E-14

      iter #  11 total cpu time :  9001.0 secs   av.it.:   8.7
      thresh= 2.045E-08 alpha_mix =  0.700 |ddv_scf|^2 =  3.033E-16

      iter #  12 total cpu time :  9044.2 secs   av.it.:   9.9
      thresh= 1.742E-09 alpha_mix =  0.700 |ddv_scf|^2 =  8.878E-17

     End of self-consistent calculation

     Convergence has been achieved 


     Representation #  20 mode #  20

     Self-consistent Calculation

      iter #   1 total cpu time :  9076.0 secs   av.it.:   4.1
      thresh= 1.000E-02 alpha_mix =  0.700 |ddv_scf|^2 =  1.027E-05

      iter #   2 total cpu time :  9105.2 secs   av.it.:   9.1
      thresh= 3.204E-04 alpha_mix =  0.700 |ddv_scf|^2 =  1.394E-04

      iter #   3 total cpu time :  9141.5 secs   av.it.:   7.6
      thresh= 1.181E-03 alpha_mix =  0.700 |ddv_scf|^2 =  3.471E-08

      iter #   4 total cpu time :  9175.0 secs   av.it.:   9.6
      thresh= 1.863E-05 alpha_mix =  0.700 |ddv_scf|^2 =  1.246E-09

      iter #   5 total cpu time :  9211.0 secs   av.it.:   9.6
      thresh= 3.530E-06 alpha_mix =  0.700 |ddv_scf|^2 =  3.741E-11

      iter #   6 total cpu time :  9248.8 secs   av.it.:   9.8
      thresh= 6.116E-07 alpha_mix =  0.700 |ddv_scf|^2 =  2.792E-12

      iter #   7 total cpu time :  9294.9 secs   av.it.:   9.7
      thresh= 1.671E-07 alpha_mix =  0.700 |ddv_scf|^2 =  2.444E-13

      iter #   8 total cpu time :  9336.1 secs   av.it.:   9.7
      thresh= 4.943E-08 alpha_mix =  0.700 |ddv_scf|^2 =  1.616E-12

      iter #   9 total cpu time :  9378.8 secs   av.it.:   7.8
      thresh= 1.271E-07 alpha_mix =  0.700 |ddv_scf|^2 =  2.067E-13

      iter #  10 total cpu time :  9413.8 secs   av.it.:   8.1
      thresh= 4.546E-08 alpha_mix =  0.700 |ddv_scf|^2 =  4.694E-14

      iter #  11 total cpu time :  9461.0 secs   av.it.:   8.7
      thresh= 2.167E-08 alpha_mix =  0.700 |ddv_scf|^2 =  3.018E-16

      iter #  12 total cpu time :  9511.9 secs   av.it.:   9.9
      thresh= 1.737E-09 alpha_mix =  0.700 |ddv_scf|^2 =  6.190E-17

     End of self-consistent calculation

     Convergence has been achieved 


     Representation #  21 mode #  21

     Self-consistent Calculation

      iter #   1 total cpu time :  9548.5 secs   av.it.:   4.2
      thresh= 1.000E-02 alpha_mix =  0.700 |ddv_scf|^2 =  9.621E-06

      iter #   2 total cpu time :  9574.9 secs   av.it.:   9.1
      thresh= 3.102E-04 alpha_mix =  0.700 |ddv_scf|^2 =  1.312E-04

      iter #   3 total cpu time :  9602.3 secs   av.it.:   7.6
      thresh= 1.146E-03 alpha_mix =  0.700 |ddv_scf|^2 =  2.553E-08

      iter #   4 total cpu time :  9636.0 secs   av.it.:   9.7
      thresh= 1.598E-05 alpha_mix =  0.700 |ddv_scf|^2 =  1.061E-09

      iter #   5 total cpu time :  9677.2 secs   av.it.:   9.6
      thresh= 3.257E-06 alpha_mix =  0.700 |ddv_scf|^2 =  4.501E-11

      iter #   6 total cpu time :  9715.6 secs   av.it.:   9.8
      thresh= 6.709E-07 alpha_mix =  0.700 |ddv_scf|^2 =  3.205E-12

      iter #   7 total cpu time :  9758.6 secs   av.it.:   9.7
      thresh= 1.790E-07 alpha_mix =  0.700 |ddv_scf|^2 =  3.335E-13

      iter #   8 total cpu time :  9805.0 secs   av.it.:   9.4
      thresh= 5.775E-08 alpha_mix =  0.700 |ddv_scf|^2 =  2.624E-12

      iter #   9 total cpu time :  9853.0 secs   av.it.:   7.8
      thresh= 1.620E-07 alpha_mix =  0.700 |ddv_scf|^2 =  2.010E-13

      iter #  10 total cpu time :  9892.5 secs   av.it.:   8.1
      thresh= 4.483E-08 alpha_mix =  0.700 |ddv_scf|^2 =  3.272E-14

      iter #  11 total cpu time :  9928.3 secs   av.it.:   8.8
      thresh= 1.809E-08 alpha_mix =  0.700 |ddv_scf|^2 =  3.100E-16

      iter #  12 total cpu time :  9968.0 secs   av.it.:   9.9
      thresh= 1.761E-09 alpha_mix =  0.700 |ddv_scf|^2 =  7.919E-17

     End of self-consistent calculation

     Convergence has been achieved 
 
     Number of q in the star =   48
     List of q in the star:
          1   0.324759526   0.216506351   0.108253175
          2  -0.324759526   0.216506351   0.108253175
          3  -0.324759526   0.108253175   0.216506351
          4   0.324759526   0.108253175   0.216506351
          5   0.216506351  -0.324759526   0.108253175
          6  -0.216506351  -0.324759526   0.108253175
          7  -0.324759526  -0.216506351   0.108253175
          8   0.216506351   0.324759526   0.108253175
          9   0.216506351  -0.108253175  -0.324759526
         10  -0.216506351  -0.108253175   0.324759526
         11   0.216506351   0.108253175   0.324759526
         12   0.108253175  -0.324759526  -0.216506351
         13  -0.108253175   0.324759526  -0.216506351
         14   0.108253175   0.324759526   0.216506351
         15  -0.324759526   0.216506351  -0.108253175
         16   0.108253175   0.216506351   0.324759526
         17   0.324759526  -0.216506351  -0.108253175
         18  -0.216506351   0.324759526  -0.108253175
         19   0.216506351  -0.324759526  -0.108253175
         20  -0.108253175  -0.216506351   0.324759526
         21   0.108253175  -0.216506351  -0.324759526
         22   0.324759526  -0.108253175  -0.216506351
         23  -0.324759526  -0.108253175   0.216506351
         24  -0.324759526   0.108253175  -0.216506351
         25  -0.324759526  -0.108253175  -0.216506351
         26   0.324759526   0.108253175  -0.216506351
         27   0.324759526  -0.108253175   0.216506351
         28  -0.324759526  -0.216506351  -0.108253175
         29   0.324759526   0.216506351  -0.108253175
         30  -0.108253175  -0.324759526   0.216506351
         31  -0.216506351   0.324759526   0.108253175
         32   0.108253175  -0.216506351   0.324759526
         33  -0.108253175   0.216506351  -0.324759526
         34  -0.216506351  -0.324759526  -0.108253175
         35  -0.108253175  -0.216506351  -0.324759526
         36   0.108253175   0.216506351  -0.324759526
         37  -0.108253175   0.216506351   0.324759526
         38   0.216506351   0.324759526  -0.108253175
         39   0.324759526  -0.216506351   0.108253175
         40  -0.216506351   0.108253175  -0.324759526
         41  -0.216506351  -0.108253175  -0.324759526
         42   0.216506351  -0.108253175   0.324759526
         43  -0.216506351   0.108253175   0.324759526
         44   0.216506351   0.108253175  -0.324759526
         45  -0.108253175  -0.324759526  -0.216506351
         46  -0.108253175   0.324759526   0.216506351
         47   0.108253175   0.324759526  -0.216506351
         48   0.108253175  -0.324759526   0.216506351

     Diagonalizing the dynamical matrix

     q = (    0.324759526   0.216506351   0.108253175 ) 

 **************************************************************************
     freq (    1) =       7.784587 [THz] =     259.665876 [cm-1]
     freq (    2) =       9.007289 [THz] =     300.450834 [cm-1]
     freq (    3) =      13.296989 [THz] =     443.539808 [cm-1]
     freq (    4) =      28.468728 [THz] =     949.614551 [cm-1]
     freq (    5) =      29.607959 [THz] =     987.615194 [cm-1]
     freq (    6) =      31.167257 [THz] =    1039.627772 [cm-1]
     freq (    7) =      35.127432 [THz] =    1171.724996 [cm-1]
     freq (    8) =      36.763431 [THz] =    1226.296047 [cm-1]
     freq (    9) =      39.046349 [THz] =    1302.446020 [cm-1]
     freq (   10) =      40.389660 [THz] =    1347.254048 [cm-1]
     freq (   11) =      41.965870 [THz] =    1399.830734 [cm-1]
     freq (   12) =      42.453534 [THz] =    1416.097474 [cm-1]
     freq (   13) =      43.204029 [THz] =    1441.131272 [cm-1]
     freq (   14) =      43.380170 [THz] =    1447.006731 [cm-1]
     freq (   15) =      43.949148 [THz] =    1465.985770 [cm-1]
     freq (   16) =      44.955966 [THz] =    1499.569599 [cm-1]
     freq (   17) =      46.885712 [THz] =    1563.939021 [cm-1]
     freq (   18) =      49.006870 [THz] =    1634.693218 [cm-1]
     freq (   19) =      50.215891 [THz] =    1675.021834 [cm-1]
     freq (   20) =      56.656218 [THz] =    1889.848017 [cm-1]
     freq (   21) =      59.577605 [THz] =    1987.294978 [cm-1]
 **************************************************************************

     Mode symmetry, C_1 (1)     point group:

     freq (   1-   1) =        259.7  [cm-1]   --> A                  
     freq (   2-   2) =        300.5  [cm-1]   --> A                  
     freq (   3-   3) =        443.5  [cm-1]   --> A                  
     freq (   4-   4) =        949.6  [cm-1]   --> A                  
     freq (   5-   5) =        987.6  [cm-1]   --> A                  
     freq (   6-   6) =       1039.6  [cm-1]   --> A                  
     freq (   7-   7) =       1171.7  [cm-1]   --> A                  
     freq (   8-   8) =       1226.3  [cm-1]   --> A                  
     freq (   9-   9) =       1302.4  [cm-1]   --> A                  
     freq (  10-  10) =       1347.3  [cm-1]   --> A                  
     freq (  11-  11) =       1399.8  [cm-1]   --> A                  
     freq (  12-  12) =       1416.1  [cm-1]   --> A                  
     freq (  13-  13) =       1441.1  [cm-1]   --> A                  
     freq (  14-  14) =       1447.0  [cm-1]   --> A                  
     freq (  15-  15) =       1466.0  [cm-1]   --> A                  
     freq (  16-  16) =       1499.6  [cm-1]   --> A                  
     freq (  17-  17) =       1563.9  [cm-1]   --> A                  
     freq (  18-  18) =       1634.7  [cm-1]   --> A                  
     freq (  19-  19) =       1675.0  [cm-1]   --> A                  
     freq (  20-  20) =       1889.8  [cm-1]   --> A                  
     freq (  21-  21) =       1987.3  [cm-1]   --> A                  
     electron-phonon interaction  ...

     Gaussian Broadening:   0.005 Ry, ngauss=   0
     DOS =  1.900675 states/spin/Ry/Unit Cell at Ef= 17.155196 eV
     lambda(    1)=  0.0222   gamma=    2.44 GHz
     lambda(    2)=  0.0094   gamma=    1.38 GHz
     lambda(    3)=  0.0073   gamma=    2.36 GHz
     lambda(    4)=  0.0577   gamma=   84.91 GHz
     lambda(    5)=  0.0960   gamma=  152.74 GHz
     lambda(    6)=  0.0463   gamma=   81.70 GHz
     lambda(    7)=  0.0414   gamma=   92.70 GHz
     lambda(    8)=  0.0192   gamma=   47.14 GHz
     lambda(    9)=  0.0031   gamma=    8.56 GHz
     lambda(   10)=  0.0051   gamma=   15.01 GHz
     lambda(   11)=  0.0026   gamma=    8.41 GHz
     lambda(   12)=  0.0028   gamma=    9.12 GHz
     lambda(   13)=  0.0047   gamma=   15.98 GHz
     lambda(   14)=  0.0024   gamma=    8.04 GHz
     lambda(   15)=  0.0008   gamma=    2.92 GHz
     lambda(   16)=  0.0010   gamma=    3.69 GHz
     lambda(   17)=  0.0027   gamma=   10.62 GHz
     lambda(   18)=  0.0009   gamma=    3.89 GHz
     lambda(   19)=  0.0017   gamma=    7.76 GHz
     lambda(   20)=  0.0029   gamma=   16.91 GHz
     lambda(   21)=  0.0013   gamma=    8.54 GHz
     Gaussian Broadening:   0.010 Ry, ngauss=   0
     DOS =  2.130656 states/spin/Ry/Unit Cell at Ef= 17.149400 eV
     lambda(    1)=  0.1044   gamma=   12.87 GHz
     lambda(    2)=  0.0375   gamma=    6.19 GHz
     lambda(    3)=  0.0221   gamma=    7.96 GHz
     lambda(    4)=  0.1883   gamma=  310.51 GHz
     lambda(    5)=  0.2138   gamma=  381.29 GHz
     lambda(    6)=  0.1921   gamma=  379.68 GHz
     lambda(    7)=  0.1652   gamma=  414.79 GHz
     lambda(    8)=  0.0776   gamma=  213.43 GHz
     lambda(    9)=  0.0079   gamma=   24.40 GHz
     lambda(   10)=  0.0218   gamma=   72.43 GHz
     lambda(   11)=  0.0094   gamma=   33.65 GHz
     lambda(   12)=  0.0096   gamma=   35.11 GHz
     lambda(   13)=  0.0114   gamma=   43.33 GHz
     lambda(   14)=  0.0087   gamma=   33.47 GHz
     lambda(   15)=  0.0027   gamma=   10.47 GHz
     lambda(   16)=  0.0029   gamma=   12.06 GHz
     lambda(   17)=  0.0080   gamma=   35.68 GHz
     lambda(   18)=  0.0033   gamma=   16.08 GHz
     lambda(   19)=  0.0059   gamma=   30.45 GHz
     lambda(   20)=  0.0084   gamma=   54.70 GHz
     lambda(   21)=  0.0057   gamma=   41.36 GHz
     Gaussian Broadening:   0.015 Ry, ngauss=   0
     DOS =  2.235086 states/spin/Ry/Unit Cell at Ef= 17.146382 eV
     lambda(    1)=  0.1190   gamma=   15.39 GHz
     lambda(    2)=  0.0425   gamma=    7.36 GHz
     lambda(    3)=  0.0261   gamma=    9.85 GHz
     lambda(    4)=  0.2076   gamma=  359.16 GHz
     lambda(    5)=  0.2465   gamma=  461.30 GHz
     lambda(    6)=  0.2168   gamma=  449.46 GHz
     lambda(    7)=  0.1932   gamma=  508.92 GHz
     lambda(    8)=  0.0910   gamma=  262.38 GHz
     lambda(    9)=  0.0096   gamma=   31.37 GHz
     lambda(   10)=  0.0258   gamma=   89.76 GHz
     lambda(   11)=  0.0112   gamma=   42.24 GHz
     lambda(   12)=  0.0115   gamma=   44.40 GHz
     lambda(   13)=  0.0134   gamma=   53.25 GHz
     lambda(   14)=  0.0115   gamma=   46.02 GHz
     lambda(   15)=  0.0032   gamma=   13.09 GHz
     lambda(   16)=  0.0037   gamma=   15.82 GHz
     lambda(   17)=  0.0100   gamma=   46.85 GHz
     lambda(   18)=  0.0042   gamma=   21.67 GHz
     lambda(   19)=  0.0071   gamma=   38.33 GHz
     lambda(   20)=  0.0102   gamma=   70.08 GHz
     lambda(   21)=  0.0065   gamma=   49.46 GHz
     Gaussian Broadening:   0.020 Ry, ngauss=   0
     DOS =  2.290454 states/spin/Ry/Unit Cell at Ef= 17.145317 eV
     lambda(    1)=  0.1196   gamma=   15.86 GHz
     lambda(    2)=  0.0432   gamma=    7.67 GHz
     lambda(    3)=  0.0276   gamma=   10.68 GHz
     lambda(    4)=  0.2219   gamma=  393.40 GHz
     lambda(    5)=  0.2693   gamma=  516.29 GHz
     lambda(    6)=  0.2245   gamma=  477.08 GHz
     lambda(    7)=  0.1981   gamma=  534.69 GHz
     lambda(    8)=  0.0931   gamma=  275.09 GHz
     lambda(    9)=  0.0110   gamma=   36.66 GHz
     lambda(   10)=  0.0268   gamma=   95.50 GHz
     lambda(   11)=  0.0119   gamma=   45.87 GHz
     lambda(   12)=  0.0130   gamma=   51.15 GHz
     lambda(   13)=  0.0149   gamma=   60.92 GHz
     lambda(   14)=  0.0137   gamma=   56.54 GHz
     lambda(   15)=  0.0034   gamma=   14.40 GHz
     lambda(   16)=  0.0041   gamma=   17.92 GHz
     lambda(   17)=  0.0109   gamma=   52.20 GHz
     lambda(   18)=  0.0047   gamma=   24.87 GHz
     lambda(   19)=  0.0076   gamma=   42.01 GHz
     lambda(   20)=  0.0116   gamma=   81.73 GHz
     lambda(   21)=  0.0072   gamma=   55.93 GHz
     Gaussian Broadening:   0.025 Ry, ngauss=   0
     DOS =  2.332190 states/spin/Ry/Unit Cell at Ef= 17.144758 eV
     lambda(    1)=  0.1196   gamma=   16.14 GHz
     lambda(    2)=  0.0435   gamma=    7.86 GHz
     lambda(    3)=  0.0286   gamma=   11.27 GHz
     lambda(    4)=  0.2345   gamma=  423.20 GHz
     lambda(    5)=  0.2854   gamma=  557.11 GHz
     lambda(    6)=  0.2316   gamma=  500.95 GHz
     lambda(    7)=  0.2006   gamma=  551.25 GHz
     lambda(    8)=  0.0946   gamma=  284.63 GHz
     lambda(    9)=  0.0121   gamma=   41.23 GHz
     lambda(   10)=  0.0275   gamma=  100.06 GHz
     lambda(   11)=  0.0125   gamma=   49.21 GHz
     lambda(   12)=  0.0145   gamma=   58.31 GHz
     lambda(   13)=  0.0164   gamma=   68.25 GHz
     lambda(   14)=  0.0157   gamma=   65.98 GHz
     lambda(   15)=  0.0036   gamma=   15.53 GHz
     lambda(   16)=  0.0044   gamma=   19.63 GHz
     lambda(   17)=  0.0115   gamma=   56.36 GHz
     lambda(   18)=  0.0051   gamma=   27.04 GHz
     lambda(   19)=  0.0081   gamma=   45.32 GHz
     lambda(   20)=  0.0129   gamma=   92.31 GHz
     lambda(   21)=  0.0078   gamma=   61.70 GHz
     Gaussian Broadening:   0.030 Ry, ngauss=   0
     DOS =  2.360595 states/spin/Ry/Unit Cell at Ef= 17.144134 eV
     lambda(    1)=  0.1201   gamma=   16.41 GHz
     lambda(    2)=  0.0437   gamma=    8.00 GHz
     lambda(    3)=  0.0294   gamma=   11.71 GHz
     lambda(    4)=  0.2424   gamma=  442.89 GHz
     lambda(    5)=  0.2956   gamma=  584.14 GHz
     lambda(    6)=  0.2361   gamma=  516.93 GHz
     lambda(    7)=  0.2023   gamma=  562.79 GHz
     lambda(    8)=  0.0958   gamma=  291.72 GHz
     lambda(    9)=  0.0130   gamma=   44.74 GHz
     lambda(   10)=  0.0281   gamma=  103.48 GHz
     lambda(   11)=  0.0131   gamma=   51.98 GHz
     lambda(   12)=  0.0159   gamma=   64.41 GHz
     lambda(   13)=  0.0177   gamma=   74.45 GHz
     lambda(   14)=  0.0173   gamma=   73.25 GHz
     lambda(   15)=  0.0038   gamma=   16.34 GHz
     lambda(   16)=  0.0046   gamma=   20.88 GHz
     lambda(   17)=  0.0120   gamma=   59.47 GHz
     lambda(   18)=  0.0052   gamma=   28.36 GHz
     lambda(   19)=  0.0084   gamma=   48.00 GHz
     lambda(   20)=  0.0138   gamma=   99.97 GHz
     lambda(   21)=  0.0083   gamma=   66.02 GHz
     Gaussian Broadening:   0.035 Ry, ngauss=   0
     DOS =  2.381114 states/spin/Ry/Unit Cell at Ef= 17.143351 eV
     lambda(    1)=  0.1210   gamma=   16.68 GHz
     lambda(    2)=  0.0440   gamma=    8.12 GHz
     lambda(    3)=  0.0301   gamma=   12.09 GHz
     lambda(    4)=  0.2471   gamma=  455.38 GHz
     lambda(    5)=  0.3026   gamma=  603.19 GHz
     lambda(    6)=  0.2386   gamma=  526.94 GHz
     lambda(    7)=  0.2034   gamma=  570.74 GHz
     lambda(    8)=  0.0965   gamma=  296.71 GHz
     lambda(    9)=  0.0137   gamma=   47.63 GHz
     lambda(   10)=  0.0286   gamma=  105.97 GHz
     lambda(   11)=  0.0135   gamma=   54.18 GHz
     lambda(   12)=  0.0169   gamma=   69.29 GHz
     lambda(   13)=  0.0188   gamma=   79.71 GHz
     lambda(   14)=  0.0184   gamma=   78.87 GHz
     lambda(   15)=  0.0039   gamma=   16.92 GHz
     lambda(   16)=  0.0048   gamma=   21.84 GHz
     lambda(   17)=  0.0124   gamma=   61.95 GHz
     lambda(   18)=  0.0054   gamma=   29.24 GHz
     lambda(   19)=  0.0088   gamma=   50.22 GHz
     lambda(   20)=  0.0144   gamma=  105.32 GHz
     lambda(   21)=  0.0087   gamma=   69.92 GHz
     Gaussian Broadening:   0.040 Ry, ngauss=   0
     DOS =  2.398900 states/spin/Ry/Unit Cell at Ef= 17.142416 eV
     lambda(    1)=  0.1222   gamma=   16.96 GHz
     lambda(    2)=  0.0443   gamma=    8.24 GHz
     lambda(    3)=  0.0308   gamma=   12.48 GHz
     lambda(    4)=  0.2503   gamma=  464.68 GHz
     lambda(    5)=  0.3082   gamma=  618.92 GHz
     lambda(    6)=  0.2402   gamma=  534.41 GHz
     lambda(    7)=  0.2042   gamma=  577.09 GHz
     lambda(    8)=  0.0972   gamma=  300.95 GHz
     lambda(    9)=  0.0144   gamma=   50.34 GHz
     lambda(   10)=  0.0289   gamma=  108.07 GHz
     lambda(   11)=  0.0139   gamma=   56.12 GHz
     lambda(   12)=  0.0178   gamma=   73.39 GHz
     lambda(   13)=  0.0198   gamma=   84.52 GHz
     lambda(   14)=  0.0194   gamma=   83.60 GHz
     lambda(   15)=  0.0039   gamma=   17.44 GHz
     lambda(   16)=  0.0049   gamma=   22.75 GHz
     lambda(   17)=  0.0128   gamma=   64.30 GHz
     lambda(   18)=  0.0055   gamma=   30.04 GHz
     lambda(   19)=  0.0091   gamma=   52.35 GHz
     lambda(   20)=  0.0149   gamma=  109.66 GHz
     lambda(   21)=  0.0091   gamma=   74.33 GHz
     Gaussian Broadening:   0.045 Ry, ngauss=   0
     DOS =  2.416850 states/spin/Ry/Unit Cell at Ef= 17.141341 eV
     lambda(    1)=  0.1235   gamma=   17.28 GHz
     lambda(    2)=  0.0448   gamma=    8.38 GHz
     lambda(    3)=  0.0316   gamma=   12.90 GHz
     lambda(    4)=  0.2530   gamma=  473.22 GHz
     lambda(    5)=  0.3132   gamma=  633.57 GHz
     lambda(    6)=  0.2416   gamma=  541.72 GHz
     lambda(    7)=  0.2048   gamma=  583.24 GHz
     lambda(    8)=  0.0980   gamma=  305.62 GHz
     lambda(    9)=  0.0151   gamma=   53.14 GHz
     lambda(   10)=  0.0293   gamma=  110.13 GHz
     lambda(   11)=  0.0143   gamma=   58.04 GHz
     lambda(   12)=  0.0185   gamma=   77.07 GHz
     lambda(   13)=  0.0207   gamma=   89.22 GHz
     lambda(   14)=  0.0202   gamma=   87.90 GHz
     lambda(   15)=  0.0040   gamma=   17.97 GHz
     lambda(   16)=  0.0051   gamma=   23.73 GHz
     lambda(   17)=  0.0132   gamma=   66.83 GHz
     lambda(   18)=  0.0056   gamma=   30.96 GHz
     lambda(   19)=  0.0094   gamma=   54.67 GHz
     lambda(   20)=  0.0154   gamma=  113.95 GHz
     lambda(   21)=  0.0097   gamma=   79.71 GHz
     Gaussian Broadening:   0.050 Ry, ngauss=   0
     DOS =  2.436152 states/spin/Ry/Unit Cell at Ef= 17.140123 eV
     lambda(    1)=  0.1251   gamma=   17.63 GHz
     lambda(    2)=  0.0453   gamma=    8.55 GHz
     lambda(    3)=  0.0325   gamma=   13.36 GHz
     lambda(    4)=  0.2557   gamma=  482.06 GHz
     lambda(    5)=  0.3177   gamma=  647.89 GHz
     lambda(    6)=  0.2434   gamma=  550.03 GHz
     lambda(    7)=  0.2055   gamma=  589.77 GHz
     lambda(    8)=  0.0990   gamma=  311.34 GHz
     lambda(    9)=  0.0158   gamma=   56.10 GHz
     lambda(   10)=  0.0296   gamma=  112.38 GHz
     lambda(   11)=  0.0147   gamma=   60.08 GHz
     lambda(   12)=  0.0192   gamma=   80.54 GHz
     lambda(   13)=  0.0216   gamma=   93.95 GHz
     lambda(   14)=  0.0210   gamma=   92.02 GHz
     lambda(   15)=  0.0041   gamma=   18.56 GHz
     lambda(   16)=  0.0053   gamma=   24.82 GHz
     lambda(   17)=  0.0136   gamma=   69.73 GHz
     lambda(   18)=  0.0057   gamma=   32.07 GHz
     lambda(   19)=  0.0098   gamma=   57.33 GHz
     lambda(   20)=  0.0159   gamma=  118.72 GHz
     lambda(   21)=  0.0104   gamma=   86.14 GHz
 
 
     Number of q in the star =   48
     List of q in the star:
          1   0.324759526   0.216506351   0.108253175
          2  -0.324759526   0.216506351   0.108253175
          3  -0.324759526   0.108253175   0.216506351
          4   0.324759526   0.108253175   0.216506351
          5   0.216506351  -0.324759526   0.108253175
          6  -0.216506351  -0.324759526   0.108253175
          7  -0.324759526  -0.216506351   0.108253175
          8   0.216506351   0.324759526   0.108253175
          9   0.216506351  -0.108253175  -0.324759526
         10  -0.216506351  -0.108253175   0.324759526
         11   0.216506351   0.108253175   0.324759526
         12   0.108253175  -0.324759526  -0.216506351
         13  -0.108253175   0.324759526  -0.216506351
         14   0.108253175   0.324759526   0.216506351
         15  -0.324759526   0.216506351  -0.108253175
         16   0.108253175   0.216506351   0.324759526
         17   0.324759526  -0.216506351  -0.108253175
         18  -0.216506351   0.324759526  -0.108253175
         19   0.216506351  -0.324759526  -0.108253175
         20  -0.108253175  -0.216506351   0.324759526
         21   0.108253175  -0.216506351  -0.324759526
         22   0.324759526  -0.108253175  -0.216506351
         23  -0.324759526  -0.108253175   0.216506351
         24  -0.324759526   0.108253175  -0.216506351
         25  -0.324759526  -0.108253175  -0.216506351
         26   0.324759526   0.108253175  -0.216506351
         27   0.324759526  -0.108253175   0.216506351
         28  -0.324759526  -0.216506351  -0.108253175
         29   0.324759526   0.216506351  -0.108253175
         30  -0.108253175  -0.324759526   0.216506351
         31  -0.216506351   0.324759526   0.108253175
         32   0.108253175  -0.216506351   0.324759526
         33  -0.108253175   0.216506351  -0.324759526
         34  -0.216506351  -0.324759526  -0.108253175
         35  -0.108253175  -0.216506351  -0.324759526
         36   0.108253175   0.216506351  -0.324759526
         37  -0.108253175   0.216506351   0.324759526
         38   0.216506351   0.324759526  -0.108253175
         39   0.324759526  -0.216506351   0.108253175
         40  -0.216506351   0.108253175  -0.324759526
         41  -0.216506351  -0.108253175  -0.324759526
         42   0.216506351  -0.108253175   0.324759526
         43  -0.216506351   0.108253175   0.324759526
         44   0.216506351   0.108253175  -0.324759526
         45  -0.108253175  -0.324759526  -0.216506351
         46  -0.108253175   0.324759526   0.216506351
         47   0.108253175   0.324759526  -0.216506351
         48   0.108253175  -0.324759526   0.216506351
 
     init_run     :      0.07s CPU      0.27s WALL (       1 calls)
     electrons    :    162.56s CPU    175.48s WALL (       1 calls)

     Called by init_run:
     wfcinit      :      0.00s CPU      0.07s WALL (       1 calls)
     potinit      :      0.00s CPU      0.12s WALL (       1 calls)
     hinit0       :      0.03s CPU      0.04s WALL (       1 calls)

     Called by electrons:
     c_bands      :    162.49s CPU    174.47s WALL (       1 calls)
     v_of_rho     :      0.01s CPU      0.01s WALL (       2 calls)
     newd         :      0.00s CPU      0.03s WALL (       2 calls)

     Called by c_bands:
     init_us_2    :      8.49s CPU      9.48s WALL (  318464 calls)
     cegterg      :     31.96s CPU     34.28s WALL (    2081 calls)

     Called by *egterg:
     cdiaghg      :     11.10s CPU     11.84s WALL (   32382 calls)
     h_psi        :   3328.02s CPU   4025.29s WALL ( 3797820 calls)
     s_psi        :     75.94s CPU     86.28s WALL ( 7830489 calls)
     g_psi        :      0.09s CPU      0.10s WALL (   30334 calls)

     Called by h_psi:
     h_psi:calbec :     68.25s CPU     76.84s WALL ( 3797820 calls)
     vloc_psi     :   3191.64s CPU   3871.33s WALL ( 3797820 calls)
     add_vuspsi   :     35.88s CPU     40.73s WALL ( 3797820 calls)

     General routines
     calbec       :    172.66s CPU    190.03s WALL ( 8221657 calls)
     fft          :      2.21s CPU      2.84s WALL (    4919 calls)
     ffts         :      1.11s CPU      1.23s WALL (   22515 calls)
     fftw         :   4521.77s CPU   5551.34s WALL (50341813 calls)
     interpolate  :      0.15s CPU      0.17s WALL (     549 calls)
     davcio       :     57.62s CPU   1398.70s WALL ( 1422489 calls)
 
     Parallel routines
 
     PHONON       :      2h 2m CPU      2h47m WALL

     INITIALIZATION: 
     phq_setup    :      0.01s CPU      0.04s WALL (       1 calls)
     phq_init     :     26.09s CPU     29.90s WALL (       1 calls)
 
     phq_init     :     26.09s CPU     29.90s WALL (       1 calls)
     set_drhoc    :      0.04s CPU      0.05s WALL (       3 calls)
     init_vloc    :      0.00s CPU      0.03s WALL (       2 calls)
     init_us_1    :      0.05s CPU      0.14s WALL (       2 calls)
     newd         :      0.00s CPU      0.03s WALL (       2 calls)
     dvanqq       :      0.17s CPU      0.18s WALL (       1 calls)
     drho         :     17.07s CPU     19.83s WALL (       1 calls)
 
     DYNAMICAL MATRIX:
     dynmat0      :      3.01s CPU      3.46s WALL (       1 calls)
     phqscf       :   7151.08s CPU   9768.84s WALL (       1 calls)
     dynmatrix    :      0.03s CPU      0.17s WALL (       1 calls)
 
     phqscf       :   7151.08s CPU   9768.84s WALL (       1 calls)
     solve_linter :   7104.57s CPU   9711.47s WALL (      21 calls)
     drhodv       :     46.48s CPU     51.89s WALL (      21 calls)
 
     dynmat0      :      3.01s CPU      3.46s WALL (       1 calls)
     dynmat_us    :      2.97s CPU      3.38s WALL (       1 calls)
     d2ionq       :      0.01s CPU      0.01s WALL (       1 calls)
     dynmatcc     :      0.04s CPU      0.04s WALL (       1 calls)
 
     dynmat_us    :      2.97s CPU      3.38s WALL (       1 calls)
     addusdynmat  :      0.00s CPU      0.00s WALL (       1 calls)
 
     phqscf       :   7151.08s CPU   9768.84s WALL (       1 calls)
     solve_linter :   7104.57s CPU   9711.47s WALL (      21 calls)
 
     solve_linter :   7104.57s CPU   9711.47s WALL (      21 calls)
     dvqpsi_us    :     31.79s CPU     34.63s WALL (   21504 calls)
     ortho        :     59.00s CPU     63.14s WALL (  269312 calls)
     cgsolve      :   3590.46s CPU   4323.62s WALL (  269312 calls)
     incdrhoscf   :    720.68s CPU    905.94s WALL (  269312 calls)
     addusddens   :      4.39s CPU      5.78s WALL (     284 calls)
     vpsifft      :    769.56s CPU    955.45s WALL (  269312 calls)
     dv_of_drho   :      0.70s CPU      0.74s WALL (     263 calls)
     mix_pot      :     12.92s CPU     65.30s WALL (     263 calls)
     newdq        :      3.69s CPU      3.71s WALL (     263 calls)
     adddvscf     :      8.68s CPU      9.89s WALL (  269312 calls)
     drhodvus     :     17.41s CPU     29.55s WALL (      21 calls)
 
     dvqpsi_us    :     31.79s CPU     34.63s WALL (   21504 calls)
     dvqpsi_us_on :     12.06s CPU     12.85s WALL (   21504 calls)
 
     cgsolve      :   3590.46s CPU   4323.62s WALL (  269312 calls)
     ch_psi       :   3543.01s CPU   4269.28s WALL ( 3763357 calls)
 
     ch_psi       :   3543.01s CPU   4269.28s WALL ( 3763357 calls)
     h_psi        :   3328.02s CPU   4025.29s WALL ( 3797820 calls)
     last         :    154.07s CPU    174.17s WALL ( 3763357 calls)
 
     h_psi        :   3328.02s CPU   4025.29s WALL ( 3797820 calls)
     add_vuspsi   :     35.88s CPU     40.73s WALL ( 3797820 calls)
 
     incdrhoscf   :    720.68s CPU    905.94s WALL (  269312 calls)
     addusdbec    :      8.53s CPU      9.53s WALL (  290816 calls)
 
     drhodvus     :     17.41s CPU     29.55s WALL (      21 calls)
 
      Electron-phonon coupling
     elphel       :    151.04s CPU    222.22s WALL (      21 calls)
     elphsum      :     32.93s CPU     34.65s WALL (       1 calls)
 
      General routines
     calbec       :    172.66s CPU    190.03s WALL ( 8221657 calls)
     fft          :      2.21s CPU      2.84s WALL (    4919 calls)
     ffts         :      1.11s CPU      1.23s WALL (   22515 calls)
     fftw         :   4521.77s CPU   5551.34s WALL (50341813 calls)
     davcio       :     57.62s CPU   1398.70s WALL ( 1422489 calls)
     write_rec    :      0.21s CPU     31.77s WALL (     284 calls)
 
 
     PHONON       :      2h 2m CPU      2h47m WALL

 
   This run was terminated on:   8:43:19  31Jul2022            

=------------------------------------------------------------------------------=
   JOB DONE.
=------------------------------------------------------------------------------=
