
     Program PHONON v.6.8 starts on 21Jul2022 at 15:43:53 

     This program is part of the open-source Quantum ESPRESSO suite
     for quantum simulation of materials; please cite
         "P. Giannozzi et al., J. Phys.:Condens. Matter 21 395502 (2009);
         "P. Giannozzi et al., J. Phys.:Condens. Matter 29 465901 (2017);
         "P. Giannozzi et al., J. Chem. Phys. 152 154105 (2020);
          URL http://www.quantum-espresso.org", 
     in publications or presentations arising from this work. More details at
     http://www.quantum-espresso.org/quote

     Parallel version (MPI), running on    48 processors

     MPI processes distributed on     1 nodes
     K-points division:     npool     =       4
     R & G space division:  proc/nbgrp/npool/nimage =      12
     188799 MiB available memory on the printing compute node when the environment starts
 
     Waiting for input...
     Reading input from standard input

     Reading xml data from directory:

     ./tmp/Ca1H6.save/

     IMPORTANT: XC functional enforced from input :
     Exchange-correlation= PBE
                           (   1   4   3   4   0   0   0)
     Any further DFT definition will be discarded
     Please, verify this is what you really want

 
     Parallelization info
     --------------------
     sticks:   dense  smooth     PW     G-vecs:    dense   smooth      PW
     Min         139      46     17                 3602      698     155
     Max         140      47     18                 3604      701     157
     Sum        1669     557    205                43227     8391    1865
 
     Using Slab Decomposition
 
     Reading collected, re-writing distributed wavefunctions

     Saving dvscf to file. Distribute only q points, not irreducible represetations.

     Calculation of q =   -0.6495191  -0.2165064  -0.2165064

     Subspace diagonalization in iterative solution of the eigenvalue problem:
     a serial algorithm will be used

 
     Parallelization info
     --------------------
     sticks:   dense  smooth     PW     G-vecs:    dense   smooth      PW
     Min         139      46     20                 3602      698     195
     Max         140      47     21                 3604      701     196
     Sum        1669     557    241                43227     8391    2347
 
     Using Slab Decomposition
 

     Title: 
     Electron-phonon coefficients for Ca1H6                                     


     bravais-lattice index     =            0
     lattice parameter (alat)  =       5.5613  a.u.
     unit-cell volume          =     132.4087 (a.u.)^3
     number of atoms/cell      =            7
     number of atomic types    =            2
     number of electrons       =        16.00
     number of Kohn-Sham states=           12
     kinetic-energy cutoff     =      60.0000  Ry
     charge density cutoff     =     720.0000  Ry
     Exchange-correlation= PBE
                           (   1   4   3   4   0   0   0)

     celldm(1)=   5.561340  celldm(2)=   0.000000  celldm(3)=   0.000000
     celldm(4)=   0.000000  celldm(5)=   0.000000  celldm(6)=   0.000000

     crystal axes: (cart. coord. in units of alat)
               a(1) = (  -0.577350   0.577350   0.577350 )  
               a(2) = (   0.577350  -0.577350   0.577350 )  
               a(3) = (   0.577350   0.577350  -0.577350 )  

     reciprocal axes: (cart. coord. in units 2 pi/alat)
               b(1) = ( -0.000000  0.866025  0.866025 )  
               b(2) = (  0.866025 -0.000000  0.866025 )  
               b(3) = (  0.866025  0.866025  0.000000 )  


     PseudoPot. # 1 for Ca read from file:
     /work/home/mayuan/code/my_script/scripts_tests/out2/200.0/pp/ca_pbe_v1.uspp.F.UPF
     MD5 check sum: 403a4c14b9e4d4dfdc3024c9a3812218
     Pseudo is Ultrasoft + core correction, Zval = 10.0
     Generated by new atomic code, or converted to UPF format
     Using radial grid of  845 points,  6 beta functions with: 
                l(1) =   0
                l(2) =   0
                l(3) =   1
                l(4) =   1
                l(5) =   2
                l(6) =   2
     Q(r) pseudized with  8 coefficients,  rinner =    1.500   1.500   1.500
                                                       1.500   1.500

     PseudoPot. # 2 for H  read from file:
     /work/home/mayuan/code/my_script/scripts_tests/out2/200.0/pp/h_pbe_v1.uspp.F.UPF
     MD5 check sum: 3408e3ff4ec8b0a4e358431e7e038a48
     Pseudo is Ultrasoft, Zval =  1.0
     Generated by new atomic code, or converted to UPF format
     Using radial grid of  615 points,  2 beta functions with: 
                l(1) =   0
                l(2) =   0
     Q(r) pseudized with  8 coefficients,  rinner =    0.700

     atomic species   valence    mass     pseudopotential
        Ca            10.00    40.07800     Ca( 1.00)
        H              1.00     1.00794     H ( 1.00)

     48 Sym. Ops., with inversion, found



   Cartesian axes

     site n.     atom                  positions (alat units)
         1           Ca  tau(   1) = (   0.0000000   0.0000000   0.0000000  )
         2           H   tau(   2) = (   0.2886751   0.0000000   0.5773503  )
         3           H   tau(   3) = (   0.2886751   0.5773503   0.0000000  )
         4           H   tau(   4) = (   0.5773503   0.2886751   0.0000000  )
         5           H   tau(   5) = (   0.0000000   0.2886751   0.5773503  )
         6           H   tau(   6) = (   0.0000000   0.5773503   0.2886751  )
         7           H   tau(   7) = (   0.5773503   0.0000000   0.2886751  )

     number of k points=  1632  Methfessel-Paxton smearing, width (Ry)=  0.0200

     Number of k-points >= 100: set verbosity='high' to print them.

     Dense  grid:    43227 G-vectors     FFT dimensions: (  48,  48,  48)

     Smooth grid:     8391 G-vectors     FFT dimensions: (  27,  27,  27)

     Estimated max dynamical RAM per process >       8.39 MB

     Estimated total dynamical RAM >     402.71 MB

     The potential is recalculated from file :
     ./tmp/_ph0/Ca1H6.save/charge-density

     Starting wfcs are   16 atomic wfcs

     Band Structure Calculation
     Davidson diagonalization with overlap

     ethr =  6.25E-11,  avg # of iterations = 14.9

     total cpu time spent up to now is       12.0 secs

     End of band structure calculation

     Number of k-points >= 100: set verbosity='high' to print the bands.

     the Fermi energy is    17.0980 ev

     Writing output data file ./tmp/_ph0/Ca1H6.save/

     Electron-phonon coefficients for Ca1H6                                     

     bravais-lattice index     =            0
     lattice parameter (alat)  =       5.5613  a.u.
     unit-cell volume          =     132.4087 (a.u.)^3
     number of atoms/cell      =            7
     number of atomic types    =            2
     kinetic-energy cut-off    =      60.0000  Ry
     charge density cut-off    =     720.0000  Ry
     convergence threshold     =      1.0E-16
     beta                      =       0.7000
     number of iterations used =            4
     Exchange-correlation= PBE
                           (   1   4   3   4   0   0   0)


     celldm(1)=    5.56134  celldm(2)=    0.00000  celldm(3)=    0.00000
     celldm(4)=    0.00000  celldm(5)=    0.00000  celldm(6)=    0.00000

     crystal axes: (cart. coord. in units of alat)
               a(1) = ( -0.5774  0.5774  0.5774 )  
               a(2) = (  0.5774 -0.5774  0.5774 )  
               a(3) = (  0.5774  0.5774 -0.5774 )  

     reciprocal axes: (cart. coord. in units 2 pi/alat)
               b(1) = ( -0.0000  0.8660  0.8660 )  
               b(2) = (  0.8660 -0.0000  0.8660 )  
               b(3) = (  0.8660  0.8660  0.0000 )  


     Atoms inside the unit cell: 

     Cartesian axes

     site n.  atom      mass           positions (alat units)
        1     Ca  40.0780   tau(    1) = (    0.00000    0.00000    0.00000  )
        2     H    1.0079   tau(    2) = (    0.28868    0.00000    0.57735  )
        3     H    1.0079   tau(    3) = (    0.28868    0.57735    0.00000  )
        4     H    1.0079   tau(    4) = (    0.57735    0.28868    0.00000  )
        5     H    1.0079   tau(    5) = (    0.00000    0.28868    0.57735  )
        6     H    1.0079   tau(    6) = (    0.00000    0.57735    0.28868  )
        7     H    1.0079   tau(    7) = (    0.57735    0.00000    0.28868  )

     Computing dynamical matrix for 
                    q = (  -0.6495191  -0.2165064  -0.2165064 )
 
      6 Sym.Ops. (no q -> -q+G )


     G cutoff =  564.0682  (   3604 G-vectors)     FFT grid: ( 48, 48, 48)
     G cutoff =  188.0227  (    699 G-vectors)  smooth grid: ( 27, 27, 27)

     number of k points=  1632  Methfessel-Paxton smearing, width (Ry)=  0.0200

     PseudoPot. # 1 for Ca read from file:
     /work/home/mayuan/code/my_script/scripts_tests/out2/200.0/pp/ca_pbe_v1.uspp.F.UPF
     MD5 check sum: 403a4c14b9e4d4dfdc3024c9a3812218
     Pseudo is Ultrasoft + core correction, Zval = 10.0
     Generated by new atomic code, or converted to UPF format
     Using radial grid of  845 points,  6 beta functions with: 
                l(1) =   0
                l(2) =   0
                l(3) =   1
                l(4) =   1
                l(5) =   2
                l(6) =   2
     Q(r) pseudized with  8 coefficients,  rinner =    1.500   1.500   1.500
                                                       1.500   1.500

     PseudoPot. # 2 for H  read from file:
     /work/home/mayuan/code/my_script/scripts_tests/out2/200.0/pp/h_pbe_v1.uspp.F.UPF
     MD5 check sum: 3408e3ff4ec8b0a4e358431e7e038a48
     Pseudo is Ultrasoft, Zval =  1.0
     Generated by new atomic code, or converted to UPF format
     Using radial grid of  615 points,  2 beta functions with: 
                l(1) =   0
                l(2) =   0
     Q(r) pseudized with  8 coefficients,  rinner =    0.700

     Mode symmetry, C_3v (3m)   point group:


     Atomic displacements:
     There are   14 irreducible representations

     Representation     1      1 modes -  To be done

     Representation     2      1 modes -  To be done

     Representation     3      1 modes -  To be done

     Representation     4      1 modes -  To be done

     Representation     5      1 modes -  To be done

     Representation     6      1 modes -  To be done

     Representation     7      1 modes -  To be done

     Representation     8      2 modes -  To be done

     Representation     9      2 modes -  To be done

     Representation    10      2 modes -  To be done

     Representation    11      2 modes -  To be done

     Representation    12      2 modes -  To be done

     Representation    13      2 modes -  To be done

     Representation    14      2 modes -  To be done



     Alpha used in Ewald sum =   2.8000
     PHONON       :     20.69s CPU     25.79s WALL



     Representation #   1 mode #   1

     Self-consistent Calculation

      iter #   1 total cpu time :    30.9 secs   av.it.:   4.2
      thresh= 1.000E-02 alpha_mix =  0.700 |ddv_scf|^2 =  4.309E-07

      iter #   2 total cpu time :    41.2 secs   av.it.:   9.5
      thresh= 6.564E-05 alpha_mix =  0.700 |ddv_scf|^2 =  3.560E-07

      iter #   3 total cpu time :    52.2 secs   av.it.:   8.7
      thresh= 5.967E-05 alpha_mix =  0.700 |ddv_scf|^2 =  3.718E-09

      iter #   4 total cpu time :    63.2 secs   av.it.:   9.3
      thresh= 6.098E-06 alpha_mix =  0.700 |ddv_scf|^2 =  9.891E-11

      iter #   5 total cpu time :    75.8 secs   av.it.:   9.4
      thresh= 9.945E-07 alpha_mix =  0.700 |ddv_scf|^2 =  2.539E-12

      iter #   6 total cpu time :    88.2 secs   av.it.:   9.1
      thresh= 1.593E-07 alpha_mix =  0.700 |ddv_scf|^2 =  2.449E-14

      iter #   7 total cpu time :    98.9 secs   av.it.:   9.0
      thresh= 1.565E-08 alpha_mix =  0.700 |ddv_scf|^2 =  6.234E-16

      iter #   8 total cpu time :   107.9 secs   av.it.:   9.7
      thresh= 2.497E-09 alpha_mix =  0.700 |ddv_scf|^2 =  1.412E-16

      iter #   9 total cpu time :   118.7 secs   av.it.:   9.3
      thresh= 1.188E-09 alpha_mix =  0.700 |ddv_scf|^2 =  2.883E-17

     End of self-consistent calculation

     Convergence has been achieved 


     Representation #   2 mode #   2

     Self-consistent Calculation

      iter #   1 total cpu time :   129.7 secs   av.it.:   4.4
      thresh= 1.000E-02 alpha_mix =  0.700 |ddv_scf|^2 =  1.977E-06

      iter #   2 total cpu time :   139.9 secs   av.it.:   9.3
      thresh= 1.406E-04 alpha_mix =  0.700 |ddv_scf|^2 =  2.014E-06

      iter #   3 total cpu time :   147.9 secs   av.it.:   8.6
      thresh= 1.419E-04 alpha_mix =  0.700 |ddv_scf|^2 =  3.662E-09

      iter #   4 total cpu time :   158.0 secs   av.it.:   9.4
      thresh= 6.051E-06 alpha_mix =  0.700 |ddv_scf|^2 =  1.140E-10

      iter #   5 total cpu time :   168.2 secs   av.it.:   9.5
      thresh= 1.068E-06 alpha_mix =  0.700 |ddv_scf|^2 =  3.742E-12

      iter #   6 total cpu time :   180.6 secs   av.it.:   9.1
      thresh= 1.934E-07 alpha_mix =  0.700 |ddv_scf|^2 =  5.478E-14

      iter #   7 total cpu time :   189.1 secs   av.it.:   9.6
      thresh= 2.341E-08 alpha_mix =  0.700 |ddv_scf|^2 =  3.253E-15

      iter #   8 total cpu time :   198.5 secs   av.it.:   9.5
      thresh= 5.704E-09 alpha_mix =  0.700 |ddv_scf|^2 =  1.560E-16

      iter #   9 total cpu time :   208.5 secs   av.it.:   9.4
      thresh= 1.249E-09 alpha_mix =  0.700 |ddv_scf|^2 =  2.218E-17

     End of self-consistent calculation

     Convergence has been achieved 


     Representation #   3 mode #   3

     Self-consistent Calculation

      iter #   1 total cpu time :   218.8 secs   av.it.:   4.3
      thresh= 1.000E-02 alpha_mix =  0.700 |ddv_scf|^2 =  2.124E-06

      iter #   2 total cpu time :   228.2 secs   av.it.:   9.2
      thresh= 1.457E-04 alpha_mix =  0.700 |ddv_scf|^2 =  2.184E-06

      iter #   3 total cpu time :   236.7 secs   av.it.:   8.6
      thresh= 1.478E-04 alpha_mix =  0.700 |ddv_scf|^2 =  3.903E-09

      iter #   4 total cpu time :   248.0 secs   av.it.:   9.4
      thresh= 6.247E-06 alpha_mix =  0.700 |ddv_scf|^2 =  7.420E-11

      iter #   5 total cpu time :   259.1 secs   av.it.:   9.3
      thresh= 8.614E-07 alpha_mix =  0.700 |ddv_scf|^2 =  1.201E-12

      iter #   6 total cpu time :   269.7 secs   av.it.:   9.1
      thresh= 1.096E-07 alpha_mix =  0.700 |ddv_scf|^2 =  2.207E-14

      iter #   7 total cpu time :   281.4 secs   av.it.:   9.6
      thresh= 1.485E-08 alpha_mix =  0.700 |ddv_scf|^2 =  2.361E-15

      iter #   8 total cpu time :   295.2 secs   av.it.:   9.5
      thresh= 4.859E-09 alpha_mix =  0.700 |ddv_scf|^2 =  1.671E-16

      iter #   9 total cpu time :   306.8 secs   av.it.:   9.4
      thresh= 1.293E-09 alpha_mix =  0.700 |ddv_scf|^2 =  8.251E-17

     End of self-consistent calculation

     Convergence has been achieved 


     Representation #   4 mode #   4

     Self-consistent Calculation

      iter #   1 total cpu time :   315.6 secs   av.it.:   6.4
      thresh= 1.000E-02 alpha_mix =  0.700 |ddv_scf|^2 =  1.507E-05

      iter #   2 total cpu time :   325.8 secs   av.it.:   9.5
      thresh= 3.882E-04 alpha_mix =  0.700 |ddv_scf|^2 =  6.820E-06

      iter #   3 total cpu time :   336.1 secs   av.it.:   9.0
      thresh= 2.611E-04 alpha_mix =  0.700 |ddv_scf|^2 =  4.196E-07

      iter #   4 total cpu time :   346.3 secs   av.it.:   8.9
      thresh= 6.477E-05 alpha_mix =  0.700 |ddv_scf|^2 =  1.315E-09

      iter #   5 total cpu time :   355.8 secs   av.it.:   9.2
      thresh= 3.626E-06 alpha_mix =  0.700 |ddv_scf|^2 =  1.179E-11

      iter #   6 total cpu time :   366.5 secs   av.it.:   9.5
      thresh= 3.434E-07 alpha_mix =  0.700 |ddv_scf|^2 =  6.398E-13

      iter #   7 total cpu time :   378.5 secs   av.it.:   9.3
      thresh= 7.999E-08 alpha_mix =  0.700 |ddv_scf|^2 =  4.776E-14

      iter #   8 total cpu time :   393.4 secs   av.it.:   9.1
      thresh= 2.185E-08 alpha_mix =  0.700 |ddv_scf|^2 =  1.123E-15

      iter #   9 total cpu time :   403.9 secs   av.it.:   9.4
      thresh= 3.350E-09 alpha_mix =  0.700 |ddv_scf|^2 =  4.743E-16

      iter #  10 total cpu time :   416.3 secs   av.it.:   8.9
      thresh= 2.178E-09 alpha_mix =  0.700 |ddv_scf|^2 =  6.684E-18

     End of self-consistent calculation

     Convergence has been achieved 


     Representation #   5 mode #   5

     Self-consistent Calculation

      iter #   1 total cpu time :   426.4 secs   av.it.:   3.0
      thresh= 1.000E-02 alpha_mix =  0.700 |ddv_scf|^2 =  5.472E-09

      iter #   2 total cpu time :   436.5 secs   av.it.:   8.8
      thresh= 7.397E-06 alpha_mix =  0.700 |ddv_scf|^2 =  4.380E-10

      iter #   3 total cpu time :   445.1 secs   av.it.:   8.1
      thresh= 2.093E-06 alpha_mix =  0.700 |ddv_scf|^2 =  1.507E-12

      iter #   4 total cpu time :   455.7 secs   av.it.:   8.4
      thresh= 1.228E-07 alpha_mix =  0.700 |ddv_scf|^2 =  1.630E-14

      iter #   5 total cpu time :   466.8 secs   av.it.:   8.8
      thresh= 1.277E-08 alpha_mix =  0.700 |ddv_scf|^2 =  8.379E-17

     End of self-consistent calculation

     Convergence has been achieved 


     Representation #   6 mode #   6

     Self-consistent Calculation

      iter #   1 total cpu time :   479.3 secs   av.it.:   3.3
      thresh= 1.000E-02 alpha_mix =  0.700 |ddv_scf|^2 =  9.392E-09

      iter #   2 total cpu time :   489.5 secs   av.it.:   8.9
      thresh= 9.691E-06 alpha_mix =  0.700 |ddv_scf|^2 =  5.481E-10

      iter #   3 total cpu time :   499.4 secs   av.it.:   8.4
      thresh= 2.341E-06 alpha_mix =  0.700 |ddv_scf|^2 =  5.884E-12

      iter #   4 total cpu time :   509.9 secs   av.it.:   8.4
      thresh= 2.426E-07 alpha_mix =  0.700 |ddv_scf|^2 =  4.288E-14

      iter #   5 total cpu time :   521.2 secs   av.it.:   8.7
      thresh= 2.071E-08 alpha_mix =  0.700 |ddv_scf|^2 =  1.129E-16

      iter #   6 total cpu time :   531.2 secs   av.it.:   8.7
      thresh= 1.062E-09 alpha_mix =  0.700 |ddv_scf|^2 =  3.037E-18

     End of self-consistent calculation

     Convergence has been achieved 


     Representation #   7 mode #   7

     Self-consistent Calculation

      iter #   1 total cpu time :   540.2 secs   av.it.:   3.2
      thresh= 1.000E-02 alpha_mix =  0.700 |ddv_scf|^2 =  6.609E-09

      iter #   2 total cpu time :   549.9 secs   av.it.:   8.9
      thresh= 8.129E-06 alpha_mix =  0.700 |ddv_scf|^2 =  4.954E-10

      iter #   3 total cpu time :   560.9 secs   av.it.:   8.3
      thresh= 2.226E-06 alpha_mix =  0.700 |ddv_scf|^2 =  2.336E-12

      iter #   4 total cpu time :   570.4 secs   av.it.:   8.4
      thresh= 1.528E-07 alpha_mix =  0.700 |ddv_scf|^2 =  2.430E-14

      iter #   5 total cpu time :   580.1 secs   av.it.:   8.9
      thresh= 1.559E-08 alpha_mix =  0.700 |ddv_scf|^2 =  1.176E-16

      iter #   6 total cpu time :   591.1 secs   av.it.:   8.6
      thresh= 1.084E-09 alpha_mix =  0.700 |ddv_scf|^2 =  3.459E-18

     End of self-consistent calculation

     Convergence has been achieved 


     Representation #   8 modes #   8   9

     Self-consistent Calculation

      iter #   1 total cpu time :   611.5 secs   av.it.:   3.9
      thresh= 1.000E-02 alpha_mix =  0.700 |ddv_scf|^2 =  8.891E-08

      iter #   2 total cpu time :   628.7 secs   av.it.:  10.2
      thresh= 2.982E-05 alpha_mix =  0.700 |ddv_scf|^2 =  1.038E-07

      iter #   3 total cpu time :   646.8 secs   av.it.:   9.5
      thresh= 3.221E-05 alpha_mix =  0.700 |ddv_scf|^2 =  1.800E-10

      iter #   4 total cpu time :   665.6 secs   av.it.:  10.0
      thresh= 1.342E-06 alpha_mix =  0.700 |ddv_scf|^2 =  6.054E-12

      iter #   5 total cpu time :   686.0 secs   av.it.:  10.1
      thresh= 2.460E-07 alpha_mix =  0.700 |ddv_scf|^2 =  1.068E-13

      iter #   6 total cpu time :   703.4 secs   av.it.:  10.4
      thresh= 3.268E-08 alpha_mix =  0.700 |ddv_scf|^2 =  4.574E-15

      iter #   7 total cpu time :   722.0 secs   av.it.:  10.6
      thresh= 6.763E-09 alpha_mix =  0.700 |ddv_scf|^2 =  1.758E-16

      iter #   8 total cpu time :   739.5 secs   av.it.:  10.5
      thresh= 1.326E-09 alpha_mix =  0.700 |ddv_scf|^2 =  2.023E-17

     End of self-consistent calculation

     Convergence has been achieved 


     Representation #   9 modes #  10  11

     Self-consistent Calculation

      iter #   1 total cpu time :   763.8 secs   av.it.:   3.8
      thresh= 1.000E-02 alpha_mix =  0.700 |ddv_scf|^2 =  2.703E-08

      iter #   2 total cpu time :   781.7 secs   av.it.:  10.3
      thresh= 1.644E-05 alpha_mix =  0.700 |ddv_scf|^2 =  2.617E-08

      iter #   3 total cpu time :   799.9 secs   av.it.:   9.5
      thresh= 1.618E-05 alpha_mix =  0.700 |ddv_scf|^2 =  2.552E-10

      iter #   4 total cpu time :   819.4 secs   av.it.:  10.0
      thresh= 1.598E-06 alpha_mix =  0.700 |ddv_scf|^2 =  6.791E-12

      iter #   5 total cpu time :   839.1 secs   av.it.:  10.1
      thresh= 2.606E-07 alpha_mix =  0.700 |ddv_scf|^2 =  1.027E-13

      iter #   6 total cpu time :   858.4 secs   av.it.:  10.4
      thresh= 3.205E-08 alpha_mix =  0.700 |ddv_scf|^2 =  4.042E-15

      iter #   7 total cpu time :   876.6 secs   av.it.:  10.5
      thresh= 6.358E-09 alpha_mix =  0.700 |ddv_scf|^2 =  1.536E-16

      iter #   8 total cpu time :   894.8 secs   av.it.:  10.5
      thresh= 1.239E-09 alpha_mix =  0.700 |ddv_scf|^2 =  9.570E-18

     End of self-consistent calculation

     Convergence has been achieved 


     Representation #  10 modes #  12  13

     Self-consistent Calculation

      iter #   1 total cpu time :   919.2 secs   av.it.:   4.0
      thresh= 1.000E-02 alpha_mix =  0.700 |ddv_scf|^2 =  2.285E-07

      iter #   2 total cpu time :   937.4 secs   av.it.:  10.1
      thresh= 4.780E-05 alpha_mix =  0.700 |ddv_scf|^2 =  2.758E-07

      iter #   3 total cpu time :   955.0 secs   av.it.:   9.5
      thresh= 5.252E-05 alpha_mix =  0.700 |ddv_scf|^2 =  2.491E-10

      iter #   4 total cpu time :   972.0 secs   av.it.:  10.2
      thresh= 1.578E-06 alpha_mix =  0.700 |ddv_scf|^2 =  9.802E-12

      iter #   5 total cpu time :   991.6 secs   av.it.:  10.2
      thresh= 3.131E-07 alpha_mix =  0.700 |ddv_scf|^2 =  1.980E-13

      iter #   6 total cpu time :  1010.8 secs   av.it.:  10.3
      thresh= 4.450E-08 alpha_mix =  0.700 |ddv_scf|^2 =  3.092E-15

      iter #   7 total cpu time :  1032.0 secs   av.it.:  10.5
      thresh= 5.560E-09 alpha_mix =  0.700 |ddv_scf|^2 =  1.539E-16

      iter #   8 total cpu time :  1049.6 secs   av.it.:  10.5
      thresh= 1.241E-09 alpha_mix =  0.700 |ddv_scf|^2 =  1.821E-17

     End of self-consistent calculation

     Convergence has been achieved 


     Representation #  11 modes #  14  15

     Self-consistent Calculation

      iter #   1 total cpu time :  1073.2 secs   av.it.:   6.7
      thresh= 1.000E-02 alpha_mix =  0.700 |ddv_scf|^2 =  2.070E-05

      iter #   2 total cpu time :  1090.3 secs   av.it.:  10.1
      thresh= 4.550E-04 alpha_mix =  0.700 |ddv_scf|^2 =  2.638E-05

      iter #   3 total cpu time :  1108.0 secs   av.it.:   9.3
      thresh= 5.136E-04 alpha_mix =  0.700 |ddv_scf|^2 =  1.057E-08

      iter #   4 total cpu time :  1126.0 secs   av.it.:  10.4
      thresh= 1.028E-05 alpha_mix =  0.700 |ddv_scf|^2 =  4.111E-10

      iter #   5 total cpu time :  1142.9 secs   av.it.:   9.6
      thresh= 2.028E-06 alpha_mix =  0.700 |ddv_scf|^2 =  3.763E-12

      iter #   6 total cpu time :  1162.0 secs   av.it.:  10.0
      thresh= 1.940E-07 alpha_mix =  0.700 |ddv_scf|^2 =  2.223E-13

      iter #   7 total cpu time :  1181.2 secs   av.it.:   9.7
      thresh= 4.715E-08 alpha_mix =  0.700 |ddv_scf|^2 =  5.126E-15

      iter #   8 total cpu time :  1200.4 secs   av.it.:  10.1
      thresh= 7.160E-09 alpha_mix =  0.700 |ddv_scf|^2 =  1.723E-15

      iter #   9 total cpu time :  1217.3 secs   av.it.:   9.6
      thresh= 4.151E-09 alpha_mix =  0.700 |ddv_scf|^2 =  7.410E-17

     End of self-consistent calculation

     Convergence has been achieved 


     Representation #  12 modes #  16  17

     Self-consistent Calculation

      iter #   1 total cpu time :  1243.5 secs   av.it.:   3.7
      thresh= 1.000E-02 alpha_mix =  0.700 |ddv_scf|^2 =  1.415E-08

      iter #   2 total cpu time :  1260.3 secs   av.it.:  10.3
      thresh= 1.190E-05 alpha_mix =  0.700 |ddv_scf|^2 =  3.594E-09

      iter #   3 total cpu time :  1278.0 secs   av.it.:  10.0
      thresh= 5.995E-06 alpha_mix =  0.700 |ddv_scf|^2 =  8.044E-10

      iter #   4 total cpu time :  1294.9 secs   av.it.:   9.7
      thresh= 2.836E-06 alpha_mix =  0.700 |ddv_scf|^2 =  1.190E-11

      iter #   5 total cpu time :  1313.3 secs   av.it.:  10.1
      thresh= 3.450E-07 alpha_mix =  0.700 |ddv_scf|^2 =  1.437E-13

      iter #   6 total cpu time :  1331.4 secs   av.it.:  10.4
      thresh= 3.790E-08 alpha_mix =  0.700 |ddv_scf|^2 =  2.437E-15

      iter #   7 total cpu time :  1349.6 secs   av.it.:  10.6
      thresh= 4.936E-09 alpha_mix =  0.700 |ddv_scf|^2 =  1.138E-16

      iter #   8 total cpu time :  1370.7 secs   av.it.:  10.4
      thresh= 1.067E-09 alpha_mix =  0.700 |ddv_scf|^2 =  4.616E-18

     End of self-consistent calculation

     Convergence has been achieved 


     Representation #  13 modes #  18  19

     Self-consistent Calculation

      iter #   1 total cpu time :  1396.5 secs   av.it.:   3.9
      thresh= 1.000E-02 alpha_mix =  0.700 |ddv_scf|^2 =  9.644E-08

      iter #   2 total cpu time :  1416.6 secs   av.it.:  10.2
      thresh= 3.106E-05 alpha_mix =  0.700 |ddv_scf|^2 =  1.056E-07

      iter #   3 total cpu time :  1434.5 secs   av.it.:   9.5
      thresh= 3.250E-05 alpha_mix =  0.700 |ddv_scf|^2 =  3.568E-10

      iter #   4 total cpu time :  1454.6 secs   av.it.:   9.8
      thresh= 1.889E-06 alpha_mix =  0.700 |ddv_scf|^2 =  1.006E-11

      iter #   5 total cpu time :  1473.0 secs   av.it.:  10.1
      thresh= 3.171E-07 alpha_mix =  0.700 |ddv_scf|^2 =  2.709E-13

      iter #   6 total cpu time :  1495.8 secs   av.it.:  10.2
      thresh= 5.205E-08 alpha_mix =  0.700 |ddv_scf|^2 =  3.648E-15

      iter #   7 total cpu time :  1514.9 secs   av.it.:  10.4
      thresh= 6.040E-09 alpha_mix =  0.700 |ddv_scf|^2 =  2.680E-16

      iter #   8 total cpu time :  1533.1 secs   av.it.:  10.3
      thresh= 1.637E-09 alpha_mix =  0.700 |ddv_scf|^2 =  6.684E-18

     End of self-consistent calculation

     Convergence has been achieved 


     Representation #  14 modes #  20  21

     Self-consistent Calculation

      iter #   1 total cpu time :  1557.9 secs   av.it.:   4.2
      thresh= 1.000E-02 alpha_mix =  0.700 |ddv_scf|^2 =  2.590E-07

      iter #   2 total cpu time :  1577.5 secs   av.it.:  10.1
      thresh= 5.089E-05 alpha_mix =  0.700 |ddv_scf|^2 =  3.091E-07

      iter #   3 total cpu time :  1596.6 secs   av.it.:   9.4
      thresh= 5.560E-05 alpha_mix =  0.700 |ddv_scf|^2 =  3.279E-10

      iter #   4 total cpu time :  1614.8 secs   av.it.:  10.0
      thresh= 1.811E-06 alpha_mix =  0.700 |ddv_scf|^2 =  1.249E-11

      iter #   5 total cpu time :  1636.2 secs   av.it.:  10.1
      thresh= 3.535E-07 alpha_mix =  0.700 |ddv_scf|^2 =  3.219E-13

      iter #   6 total cpu time :  1655.0 secs   av.it.:  10.0
      thresh= 5.673E-08 alpha_mix =  0.700 |ddv_scf|^2 =  3.992E-15

      iter #   7 total cpu time :  1675.0 secs   av.it.:  10.5
      thresh= 6.318E-09 alpha_mix =  0.700 |ddv_scf|^2 =  2.246E-16

      iter #   8 total cpu time :  1691.8 secs   av.it.:  10.4
      thresh= 1.499E-09 alpha_mix =  0.700 |ddv_scf|^2 =  4.637E-17

     End of self-consistent calculation

     Convergence has been achieved 
 
     Number of q in the star =    8
     List of q in the star:
          1  -0.649519100  -0.216506400  -0.216506400
          2  -0.216506400   0.649519100  -0.216506400
          3   0.216506400  -0.649519100  -0.216506400
          4  -0.216506400   0.216506400  -0.649519100
          5   0.216506400  -0.216506400  -0.649519100
          6  -0.216506400  -0.216506400  -0.649519100
          7   0.649519100   0.216506400  -0.216506400
          8   0.216506400   0.216506400  -0.649519100

     Diagonalizing the dynamical matrix

     q = (   -0.649519100  -0.216506400  -0.216506400 ) 

 **************************************************************************
     freq (    1) =      10.331794 [THz] =     344.631538 [cm-1]
     freq (    2) =      10.571724 [THz] =     352.634746 [cm-1]
     freq (    3) =      10.571724 [THz] =     352.634746 [cm-1]
     freq (    4) =      19.855576 [THz] =     662.310738 [cm-1]
     freq (    5) =      30.866576 [THz] =    1029.598134 [cm-1]
     freq (    6) =      30.866576 [THz] =    1029.598143 [cm-1]
     freq (    7) =      32.991789 [THz] =    1100.487622 [cm-1]
     freq (    8) =      32.991789 [THz] =    1100.487629 [cm-1]
     freq (    9) =      35.945665 [THz] =    1199.018310 [cm-1]
     freq (   10) =      39.664284 [THz] =    1323.058085 [cm-1]
     freq (   11) =      41.105919 [THz] =    1371.145856 [cm-1]
     freq (   12) =      41.105919 [THz] =    1371.145857 [cm-1]
     freq (   13) =      43.330643 [THz] =    1445.354667 [cm-1]
     freq (   14) =      43.330643 [THz] =    1445.354673 [cm-1]
     freq (   15) =      44.940249 [THz] =    1499.045336 [cm-1]
     freq (   16) =      45.430890 [THz] =    1515.411361 [cm-1]
     freq (   17) =      46.838032 [THz] =    1562.348586 [cm-1]
     freq (   18) =      46.838032 [THz] =    1562.348588 [cm-1]
     freq (   19) =      54.919616 [THz] =    1831.921218 [cm-1]
     freq (   20) =      55.019818 [THz] =    1835.263595 [cm-1]
     freq (   21) =      55.019819 [THz] =    1835.263602 [cm-1]
 **************************************************************************

     Mode symmetry, C_3v (3m)   point group:

     freq (   1-   1) =        344.6  [cm-1]   --> A_1  L_1           
     freq (   2-   3) =        352.6  [cm-1]   --> E    L_3           
     freq (   4-   4) =        662.3  [cm-1]   --> A_2  L_2           
     freq (   5-   6) =       1029.6  [cm-1]   --> E    L_3           
     freq (   7-   8) =       1100.5  [cm-1]   --> E    L_3           
     freq (   9-   9) =       1199.0  [cm-1]   --> A_1  L_1           
     freq (  10-  10) =       1323.1  [cm-1]   --> A_2  L_2           
     freq (  11-  12) =       1371.1  [cm-1]   --> E    L_3           
     freq (  13-  14) =       1445.4  [cm-1]   --> E    L_3           
     freq (  15-  15) =       1499.0  [cm-1]   --> A_1  L_1           
     freq (  16-  16) =       1515.4  [cm-1]   --> A_2  L_2           
     freq (  17-  18) =       1562.3  [cm-1]   --> E    L_3           
     freq (  19-  19) =       1831.9  [cm-1]   --> A_1  L_1           
     freq (  20-  21) =       1835.3  [cm-1]   --> E    L_3           
     electron-phonon interaction  ...

     Gaussian Broadening:   0.005 Ry, ngauss=   0
     DOS =  1.900675 states/spin/Ry/Unit Cell at Ef= 17.155196 eV
     lambda(    1)=  0.1312   gamma=   25.41 GHz
     lambda(    2)=  0.1535   gamma=   31.14 GHz
     lambda(    3)=  0.1461   gamma=   29.64 GHz
     lambda(    4)=  2.3055   gamma= 1649.71 GHz
     lambda(    5)=  0.3640   gamma=  629.43 GHz
     lambda(    6)=  0.3748   gamma=  648.10 GHz
     lambda(    7)=  0.3818   gamma=  754.28 GHz
     lambda(    8)=  0.3586   gamma=  708.50 GHz
     lambda(    9)=  0.2083   gamma=  488.55 GHz
     lambda(   10)=  0.0116   gamma=   33.22 GHz
     lambda(   11)=  0.0154   gamma=   47.14 GHz
     lambda(   12)=  0.0156   gamma=   47.94 GHz
     lambda(   13)=  0.0085   gamma=   29.04 GHz
     lambda(   14)=  0.0100   gamma=   34.14 GHz
     lambda(   15)=  0.0450   gamma=  165.14 GHz
     lambda(   16)=  0.0083   gamma=   31.21 GHz
     lambda(   17)=  0.0204   gamma=   81.31 GHz
     lambda(   18)=  0.0223   gamma=   88.90 GHz
     lambda(   19)=  0.0994   gamma=  544.15 GHz
     lambda(   20)=  0.0094   gamma=   51.88 GHz
     lambda(   21)=  0.0100   gamma=   54.95 GHz
     Gaussian Broadening:   0.010 Ry, ngauss=   0
     DOS =  2.130656 states/spin/Ry/Unit Cell at Ef= 17.149400 eV
     lambda(    1)=  0.1600   gamma=   34.75 GHz
     lambda(    2)=  0.1760   gamma=   40.03 GHz
     lambda(    3)=  0.1732   gamma=   39.38 GHz
     lambda(    4)=  1.6543   gamma= 1326.98 GHz
     lambda(    5)=  0.3820   gamma=  740.44 GHz
     lambda(    6)=  0.3803   gamma=  737.29 GHz
     lambda(    7)=  0.3004   gamma=  665.18 GHz
     lambda(    8)=  0.2995   gamma=  663.23 GHz
     lambda(    9)=  0.1931   gamma=  507.62 GHz
     lambda(   10)=  0.0109   gamma=   34.86 GHz
     lambda(   11)=  0.0165   gamma=   56.67 GHz
     lambda(   12)=  0.0171   gamma=   58.66 GHz
     lambda(   13)=  0.0066   gamma=   25.17 GHz
     lambda(   14)=  0.0078   gamma=   29.95 GHz
     lambda(   15)=  0.0400   gamma=  164.35 GHz
     lambda(   16)=  0.0056   gamma=   23.56 GHz
     lambda(   17)=  0.0217   gamma=   96.87 GHz
     lambda(   18)=  0.0231   gamma=  102.96 GHz
     lambda(   19)=  0.0829   gamma=  508.89 GHz
     lambda(   20)=  0.0073   gamma=   45.17 GHz
     lambda(   21)=  0.0078   gamma=   47.86 GHz
     Gaussian Broadening:   0.015 Ry, ngauss=   0
     DOS =  2.235086 states/spin/Ry/Unit Cell at Ef= 17.146382 eV
     lambda(    1)=  0.1408   gamma=   32.08 GHz
     lambda(    2)=  0.1498   gamma=   35.74 GHz
     lambda(    3)=  0.1488   gamma=   35.48 GHz
     lambda(    4)=  1.3696   gamma= 1152.48 GHz
     lambda(    5)=  0.3329   gamma=  676.93 GHz
     lambda(    6)=  0.3275   gamma=  666.04 GHz
     lambda(    7)=  0.2614   gamma=  607.38 GHz
     lambda(    8)=  0.2620   gamma=  608.65 GHz
     lambda(    9)=  0.1654   gamma=  456.08 GHz
     lambda(   10)=  0.0092   gamma=   30.99 GHz
     lambda(   11)=  0.0139   gamma=   50.04 GHz
     lambda(   12)=  0.0143   gamma=   51.57 GHz
     lambda(   13)=  0.0057   gamma=   22.96 GHz
     lambda(   14)=  0.0065   gamma=   26.01 GHz
     lambda(   15)=  0.0386   gamma=  166.55 GHz
     lambda(   16)=  0.0043   gamma=   19.09 GHz
     lambda(   17)=  0.0192   gamma=   89.80 GHz
     lambda(   18)=  0.0200   gamma=   93.54 GHz
     lambda(   19)=  0.0717   gamma=  461.87 GHz
     lambda(   20)=  0.0064   gamma=   41.21 GHz
     lambda(   21)=  0.0067   gamma=   43.31 GHz
     Gaussian Broadening:   0.020 Ry, ngauss=   0
     DOS =  2.290454 states/spin/Ry/Unit Cell at Ef= 17.145317 eV
     lambda(    1)=  0.1339   gamma=   31.26 GHz
     lambda(    2)=  0.1328   gamma=   32.47 GHz
     lambda(    3)=  0.1325   gamma=   32.40 GHz
     lambda(    4)=  1.2654   gamma= 1091.16 GHz
     lambda(    5)=  0.3072   gamma=  640.20 GHz
     lambda(    6)=  0.3015   gamma=  628.21 GHz
     lambda(    7)=  0.2450   gamma=  583.19 GHz
     lambda(    8)=  0.2455   gamma=  584.57 GHz
     lambda(    9)=  0.1569   gamma=  443.51 GHz
     lambda(   10)=  0.0083   gamma=   28.42 GHz
     lambda(   11)=  0.0126   gamma=   46.73 GHz
     lambda(   12)=  0.0130   gamma=   47.87 GHz
     lambda(   13)=  0.0056   gamma=   23.14 GHz
     lambda(   14)=  0.0062   gamma=   25.32 GHz
     lambda(   15)=  0.0403   gamma=  178.04 GHz
     lambda(   16)=  0.0039   gamma=   17.79 GHz
     lambda(   17)=  0.0179   gamma=   85.88 GHz
     lambda(   18)=  0.0184   gamma=   88.39 GHz
     lambda(   19)=  0.0670   gamma=  442.17 GHz
     lambda(   20)=  0.0062   gamma=   41.06 GHz
     lambda(   21)=  0.0064   gamma=   42.46 GHz
     Gaussian Broadening:   0.025 Ry, ngauss=   0
     DOS =  2.332190 states/spin/Ry/Unit Cell at Ef= 17.144758 eV
     lambda(    1)=  0.1327   gamma=   31.55 GHz
     lambda(    2)=  0.1263   gamma=   31.44 GHz
     lambda(    3)=  0.1264   gamma=   31.46 GHz
     lambda(    4)=  1.2225   gamma= 1073.35 GHz
     lambda(    5)=  0.2985   gamma=  633.44 GHz
     lambda(    6)=  0.2932   gamma=  622.09 GHz
     lambda(    7)=  0.2413   gamma=  585.02 GHz
     lambda(    8)=  0.2419   gamma=  586.41 GHz
     lambda(    9)=  0.1558   gamma=  448.27 GHz
     lambda(   10)=  0.0079   gamma=   27.61 GHz
     lambda(   11)=  0.0124   gamma=   46.71 GHz
     lambda(   12)=  0.0127   gamma=   47.61 GHz
     lambda(   13)=  0.0057   gamma=   23.84 GHz
     lambda(   14)=  0.0061   gamma=   25.55 GHz
     lambda(   15)=  0.0419   gamma=  188.42 GHz
     lambda(   16)=  0.0039   gamma=   17.77 GHz
     lambda(   17)=  0.0175   gamma=   85.51 GHz
     lambda(   18)=  0.0179   gamma=   87.39 GHz
     lambda(   19)=  0.0657   gamma=  441.22 GHz
     lambda(   20)=  0.0063   gamma=   42.48 GHz
     lambda(   21)=  0.0064   gamma=   43.48 GHz
     Gaussian Broadening:   0.030 Ry, ngauss=   0
     DOS =  2.360595 states/spin/Ry/Unit Cell at Ef= 17.144134 eV
     lambda(    1)=  0.1317   gamma=   31.68 GHz
     lambda(    2)=  0.1238   gamma=   31.20 GHz
     lambda(    3)=  0.1241   gamma=   31.26 GHz
     lambda(    4)=  1.1997   gamma= 1066.21 GHz
     lambda(    5)=  0.2947   gamma=  632.97 GHz
     lambda(    6)=  0.2899   gamma=  622.63 GHz
     lambda(    7)=  0.2409   gamma=  591.20 GHz
     lambda(    8)=  0.2414   gamma=  592.40 GHz
     lambda(    9)=  0.1545   gamma=  449.92 GHz
     lambda(   10)=  0.0078   gamma=   27.51 GHz
     lambda(   11)=  0.0125   gamma=   47.57 GHz
     lambda(   12)=  0.0127   gamma=   48.32 GHz
     lambda(   13)=  0.0057   gamma=   24.30 GHz
     lambda(   14)=  0.0061   gamma=   25.73 GHz
     lambda(   15)=  0.0423   gamma=  192.71 GHz
     lambda(   16)=  0.0039   gamma=   18.10 GHz
     lambda(   17)=  0.0174   gamma=   85.90 GHz
     lambda(   18)=  0.0177   gamma=   87.45 GHz
     lambda(   19)=  0.0648   gamma=  440.60 GHz
     lambda(   20)=  0.0064   gamma=   43.79 GHz
     lambda(   21)=  0.0065   gamma=   44.55 GHz
     Gaussian Broadening:   0.035 Ry, ngauss=   0
     DOS =  2.381114 states/spin/Ry/Unit Cell at Ef= 17.143351 eV
     lambda(    1)=  0.1298   gamma=   31.50 GHz
     lambda(    2)=  0.1225   gamma=   31.12 GHz
     lambda(    3)=  0.1227   gamma=   31.18 GHz
     lambda(    4)=  1.1853   gamma= 1062.58 GHz
     lambda(    5)=  0.2915   gamma=  631.60 GHz
     lambda(    6)=  0.2873   gamma=  622.32 GHz
     lambda(    7)=  0.2405   gamma=  595.15 GHz
     lambda(    8)=  0.2408   gamma=  596.07 GHz
     lambda(    9)=  0.1521   gamma=  446.98 GHz
     lambda(   10)=  0.0077   gamma=   27.69 GHz
     lambda(   11)=  0.0126   gamma=   48.49 GHz
     lambda(   12)=  0.0128   gamma=   49.15 GHz
     lambda(   13)=  0.0058   gamma=   24.62 GHz
     lambda(   14)=  0.0061   gamma=   25.86 GHz
     lambda(   15)=  0.0422   gamma=  193.73 GHz
     lambda(   16)=  0.0040   gamma=   18.57 GHz
     lambda(   17)=  0.0173   gamma=   86.32 GHz
     lambda(   18)=  0.0176   gamma=   87.68 GHz
     lambda(   19)=  0.0638   gamma=  437.77 GHz
     lambda(   20)=  0.0065   gamma=   44.90 GHz
     lambda(   21)=  0.0066   gamma=   45.51 GHz
     Gaussian Broadening:   0.040 Ry, ngauss=   0
     DOS =  2.398900 states/spin/Ry/Unit Cell at Ef= 17.142416 eV
     lambda(    1)=  0.1273   gamma=   31.14 GHz
     lambda(    2)=  0.1214   gamma=   31.07 GHz
     lambda(    3)=  0.1215   gamma=   31.11 GHz
     lambda(    4)=  1.1749   gamma= 1061.11 GHz
     lambda(    5)=  0.2881   gamma=  628.88 GHz
     lambda(    6)=  0.2844   gamma=  620.66 GHz
     lambda(    7)=  0.2393   gamma=  596.72 GHz
     lambda(    8)=  0.2396   gamma=  597.31 GHz
     lambda(    9)=  0.1492   gamma=  441.69 GHz
     lambda(   10)=  0.0078   gamma=   28.01 GHz
     lambda(   11)=  0.0127   gamma=   49.34 GHz
     lambda(   12)=  0.0129   gamma=   49.95 GHz
     lambda(   13)=  0.0058   gamma=   24.93 GHz
     lambda(   14)=  0.0061   gamma=   26.04 GHz
     lambda(   15)=  0.0419   gamma=  193.72 GHz
     lambda(   16)=  0.0041   gamma=   19.15 GHz
     lambda(   17)=  0.0173   gamma=   86.76 GHz
     lambda(   18)=  0.0175   gamma=   88.01 GHz
     lambda(   19)=  0.0628   gamma=  433.91 GHz
     lambda(   20)=  0.0066   gamma=   46.02 GHz
     lambda(   21)=  0.0067   gamma=   46.52 GHz
     Gaussian Broadening:   0.045 Ry, ngauss=   0
     DOS =  2.416850 states/spin/Ry/Unit Cell at Ef= 17.141341 eV
     lambda(    1)=  0.1246   gamma=   30.71 GHz
     lambda(    2)=  0.1204   gamma=   31.04 GHz
     lambda(    3)=  0.1205   gamma=   31.07 GHz
     lambda(    4)=  1.1664   gamma= 1061.31 GHz
     lambda(    5)=  0.2846   gamma=  625.72 GHz
     lambda(    6)=  0.2813   gamma=  618.51 GHz
     lambda(    7)=  0.2377   gamma=  597.18 GHz
     lambda(    8)=  0.2379   gamma=  597.52 GHz
     lambda(    9)=  0.1462   gamma=  435.96 GHz
     lambda(   10)=  0.0078   gamma=   28.47 GHz
     lambda(   11)=  0.0129   gamma=   50.22 GHz
     lambda(   12)=  0.0130   gamma=   50.79 GHz
     lambda(   13)=  0.0059   gamma=   25.37 GHz
     lambda(   14)=  0.0061   gamma=   26.37 GHz
     lambda(   15)=  0.0416   gamma=  193.75 GHz
     lambda(   16)=  0.0042   gamma=   19.84 GHz
     lambda(   17)=  0.0173   gamma=   87.39 GHz
     lambda(   18)=  0.0175   gamma=   88.54 GHz
     lambda(   19)=  0.0618   gamma=  430.08 GHz
     lambda(   20)=  0.0068   gamma=   47.28 GHz
     lambda(   21)=  0.0068   gamma=   47.70 GHz
     Gaussian Broadening:   0.050 Ry, ngauss=   0
     DOS =  2.436152 states/spin/Ry/Unit Cell at Ef= 17.140123 eV
     lambda(    1)=  0.1219   gamma=   30.27 GHz
     lambda(    2)=  0.1195   gamma=   31.08 GHz
     lambda(    3)=  0.1196   gamma=   31.10 GHz
     lambda(    4)=  1.1589   gamma= 1062.92 GHz
     lambda(    5)=  0.2810   gamma=  622.86 GHz
     lambda(    6)=  0.2782   gamma=  616.64 GHz
     lambda(    7)=  0.2360   gamma=  597.63 GHz
     lambda(    8)=  0.2361   gamma=  597.77 GHz
     lambda(    9)=  0.1434   gamma=  430.94 GHz
     lambda(   10)=  0.0079   gamma=   29.06 GHz
     lambda(   11)=  0.0130   gamma=   51.22 GHz
     lambda(   12)=  0.0132   gamma=   51.77 GHz
     lambda(   13)=  0.0060   gamma=   26.02 GHz
     lambda(   14)=  0.0062   gamma=   26.95 GHz
     lambda(   15)=  0.0414   gamma=  194.28 GHz
     lambda(   16)=  0.0043   gamma=   20.66 GHz
     lambda(   17)=  0.0173   gamma=   88.39 GHz
     lambda(   18)=  0.0175   gamma=   89.45 GHz
     lambda(   19)=  0.0608   gamma=  426.79 GHz
     lambda(   20)=  0.0069   gamma=   48.75 GHz
     lambda(   21)=  0.0070   gamma=   49.10 GHz
 
 
     Number of q in the star =    8
     List of q in the star:
          1  -0.649519100  -0.216506400  -0.216506400
          2  -0.216506400   0.649519100  -0.216506400
          3   0.216506400  -0.649519100  -0.216506400
          4  -0.216506400   0.216506400  -0.649519100
          5   0.216506400  -0.216506400  -0.649519100
          6  -0.216506400  -0.216506400  -0.649519100
          7   0.649519100   0.216506400  -0.216506400
          8   0.216506400   0.216506400  -0.649519100
 
     init_run     :      0.06s CPU      0.14s WALL (       1 calls)
     electrons    :     10.69s CPU     11.82s WALL (       1 calls)

     Called by init_run:
     wfcinit      :      0.00s CPU      0.03s WALL (       1 calls)
     potinit      :      0.00s CPU      0.04s WALL (       1 calls)
     hinit0       :      0.03s CPU      0.04s WALL (       1 calls)

     Called by electrons:
     c_bands      :     10.68s CPU     11.80s WALL (       1 calls)
     v_of_rho     :      0.01s CPU      0.03s WALL (       2 calls)
     newd         :      0.01s CPU      0.01s WALL (       2 calls)

     Called by c_bands:
     init_us_2    :      0.78s CPU      0.87s WALL (   29580 calls)
     cegterg      :      6.32s CPU      6.81s WALL (     409 calls)

     Called by *egterg:
     cdiaghg      :      2.12s CPU      2.28s WALL (    6358 calls)
     h_psi        :    435.56s CPU    522.08s WALL (  481527 calls)
     s_psi        :      9.90s CPU     11.19s WALL (  990559 calls)
     g_psi        :      0.02s CPU      0.02s WALL (    5950 calls)

     Called by h_psi:
     h_psi:calbec :      8.80s CPU      9.87s WALL (  481527 calls)
     vloc_psi     :    417.92s CPU    502.26s WALL (  481527 calls)
     add_vuspsi   :      4.71s CPU      5.32s WALL (  481527 calls)

     General routines
     calbec       :     45.95s CPU     49.13s WALL ( 1049107 calls)
     fft          :      0.52s CPU      0.85s WALL (    3399 calls)
     ffts         :      0.30s CPU      0.34s WALL (    4958 calls)
     fftw         :    791.12s CPU    974.93s WALL ( 6747456 calls)
     interpolate  :      0.14s CPU      0.16s WALL (     359 calls)
     davcio       :      5.64s CPU    222.84s WALL (  161129 calls)
 
     Parallel routines
 
     PHONON       :  21m 9.00s CPU  28m57.63s WALL

     INITIALIZATION: 
     phq_setup    :      0.01s CPU      0.03s WALL (       1 calls)
     phq_init     :      9.44s CPU     11.27s WALL (       1 calls)
 
     phq_init     :      9.44s CPU     11.27s WALL (       1 calls)
     set_drhoc    :      0.05s CPU      0.05s WALL (       3 calls)
     init_vloc    :      0.00s CPU      0.01s WALL (       2 calls)
     init_us_1    :      0.05s CPU      0.11s WALL (       2 calls)
     newd         :      0.01s CPU      0.01s WALL (       2 calls)
     dvanqq       :      0.17s CPU      0.17s WALL (       1 calls)
     drho         :      5.84s CPU      6.88s WALL (       1 calls)
 
     DYNAMICAL MATRIX:
     dynmat0      :      1.88s CPU      2.27s WALL (       1 calls)
     phqscf       :   1215.88s CPU   1678.59s WALL (       1 calls)
     dynmatrix    :      0.03s CPU      0.05s WALL (       1 calls)
 
     phqscf       :   1215.88s CPU   1678.59s WALL (       1 calls)
     solve_linter :   1189.51s CPU   1643.07s WALL (      14 calls)
     drhodv       :     26.36s CPU     33.01s WALL (      14 calls)
 
     dynmat0      :      1.88s CPU      2.27s WALL (       1 calls)
     dynmat_us    :      1.84s CPU      2.20s WALL (       1 calls)
     d2ionq       :      0.01s CPU      0.01s WALL (       1 calls)
     dynmatcc     :      0.04s CPU      0.04s WALL (       1 calls)
 
     dynmat_us    :      1.84s CPU      2.20s WALL (       1 calls)
     addusdynmat  :      0.00s CPU      0.00s WALL (       1 calls)
 
     phqscf       :   1215.88s CPU   1678.59s WALL (       1 calls)
     solve_linter :   1189.51s CPU   1643.07s WALL (      14 calls)
 
     solve_linter :   1189.51s CPU   1643.07s WALL (      14 calls)
     dvqpsi_us    :      6.70s CPU      7.25s WALL (    4284 calls)
     ortho        :     31.43s CPU     32.86s WALL (   34272 calls)
     cgsolve      :    468.34s CPU    559.19s WALL (   34272 calls)
     incdrhoscf   :    181.70s CPU    229.40s WALL (   34272 calls)
     addusddens   :      1.98s CPU      3.67s WALL (     125 calls)
     vpsifft      :    210.74s CPU    265.00s WALL (   34272 calls)
     dv_of_drho   :      0.43s CPU      0.46s WALL (     168 calls)
     mix_pot      :     13.45s CPU     40.09s WALL (     111 calls)
     psymdvscf    :      8.19s CPU      8.49s WALL (     111 calls)
     newdq        :      2.35s CPU      2.36s WALL (     111 calls)
     adddvscf     :      1.12s CPU      1.27s WALL (   34272 calls)
     drhodvus     :      2.49s CPU      5.78s WALL (      14 calls)
 
     dvqpsi_us    :      6.70s CPU      7.25s WALL (    4284 calls)
     dvqpsi_us_on :      2.55s CPU      2.68s WALL (    4284 calls)
 
     cgsolve      :    468.34s CPU    559.19s WALL (   34272 calls)
     ch_psi       :    462.04s CPU    552.04s WALL (  474760 calls)
 
     ch_psi       :    462.04s CPU    552.04s WALL (  474760 calls)
     h_psi        :    435.56s CPU    522.08s WALL (  481527 calls)
     last         :     20.27s CPU     22.82s WALL (  474760 calls)
 
     h_psi        :    435.56s CPU    522.08s WALL (  481527 calls)
     add_vuspsi   :      4.71s CPU      5.32s WALL (  481527 calls)
 
     incdrhoscf   :    181.70s CPU    229.40s WALL (   34272 calls)
     addusdbec    :      1.15s CPU      1.28s WALL (   38556 calls)
 
     drhodvus     :      2.49s CPU      5.78s WALL (      14 calls)
 
      Electron-phonon coupling
     elphel       :     43.48s CPU     66.15s WALL (      14 calls)
     elphsum      :     32.41s CPU     32.75s WALL (       1 calls)
 
      General routines
     calbec       :     45.95s CPU     49.13s WALL ( 1049107 calls)
     fft          :      0.52s CPU      0.85s WALL (    3399 calls)
     ffts         :      0.30s CPU      0.34s WALL (    4958 calls)
     fftw         :    791.12s CPU    974.93s WALL ( 6747456 calls)
     davcio       :      5.64s CPU    222.84s WALL (  161129 calls)
     write_rec    :      0.09s CPU     19.73s WALL (     125 calls)
 
 
     PHONON       :  21m 9.00s CPU  28m57.63s WALL

 
   This run was terminated on:  16:12:50  21Jul2022            

=------------------------------------------------------------------------------=
   JOB DONE.
=------------------------------------------------------------------------------=
