
     Program PHONON v.6.8 starts on 22Jul2022 at  0:29:23 

     This program is part of the open-source Quantum ESPRESSO suite
     for quantum simulation of materials; please cite
         "P. Giannozzi et al., J. Phys.:Condens. Matter 21 395502 (2009);
         "P. Giannozzi et al., J. Phys.:Condens. Matter 29 465901 (2017);
         "P. Giannozzi et al., J. Chem. Phys. 152 154105 (2020);
          URL http://www.quantum-espresso.org", 
     in publications or presentations arising from this work. More details at
     http://www.quantum-espresso.org/quote

     Parallel version (MPI), running on    48 processors

     MPI processes distributed on     1 nodes
     K-points division:     npool     =       4
     R & G space division:  proc/nbgrp/npool/nimage =      12
     188667 MiB available memory on the printing compute node when the environment starts
 
     Waiting for input...
     Reading input from standard input

     Reading xml data from directory:

     ./tmp/Ca1H6.save/

     IMPORTANT: XC functional enforced from input :
     Exchange-correlation= PBE
                           (   1   4   3   4   0   0   0)
     Any further DFT definition will be discarded
     Please, verify this is what you really want

 
     Parallelization info
     --------------------
     sticks:   dense  smooth     PW     G-vecs:    dense   smooth      PW
     Min         139      46     17                 3602      698     155
     Max         140      47     18                 3604      701     157
     Sum        1669     557    205                43227     8391    1865
 
     Using Slab Decomposition
 
     Reading collected, re-writing distributed wavefunctions

     Saving dvscf to file. Distribute only q points, not irreducible represetations.

     Calculation of q =    0.2165064   0.1082532   0.1082532

     Subspace diagonalization in iterative solution of the eigenvalue problem:
     a serial algorithm will be used

 
     Parallelization info
     --------------------
     sticks:   dense  smooth     PW     G-vecs:    dense   smooth      PW
     Min         139      46     17                 3602      698     155
     Max         140      47     18                 3604      701     157
     Sum        1669     557    205                43227     8391    1865
 
     Using Slab Decomposition
 

     Title: 
     Electron-phonon coefficients for Ca1H6                                     


     bravais-lattice index     =            0
     lattice parameter (alat)  =       5.5613  a.u.
     unit-cell volume          =     132.4087 (a.u.)^3
     number of atoms/cell      =            7
     number of atomic types    =            2
     number of electrons       =        16.00
     number of Kohn-Sham states=           12
     kinetic-energy cutoff     =      60.0000  Ry
     charge density cutoff     =     720.0000  Ry
     Exchange-correlation= PBE
                           (   1   4   3   4   0   0   0)

     celldm(1)=   5.561340  celldm(2)=   0.000000  celldm(3)=   0.000000
     celldm(4)=   0.000000  celldm(5)=   0.000000  celldm(6)=   0.000000

     crystal axes: (cart. coord. in units of alat)
               a(1) = (  -0.577350   0.577350   0.577350 )  
               a(2) = (   0.577350  -0.577350   0.577350 )  
               a(3) = (   0.577350   0.577350  -0.577350 )  

     reciprocal axes: (cart. coord. in units 2 pi/alat)
               b(1) = ( -0.000000  0.866025  0.866025 )  
               b(2) = (  0.866025 -0.000000  0.866025 )  
               b(3) = (  0.866025  0.866025  0.000000 )  


     PseudoPot. # 1 for Ca read from file:
     /work/home/mayuan/code/my_script/scripts_tests/out2/200.0/pp/ca_pbe_v1.uspp.F.UPF
     MD5 check sum: 403a4c14b9e4d4dfdc3024c9a3812218
     Pseudo is Ultrasoft + core correction, Zval = 10.0
     Generated by new atomic code, or converted to UPF format
     Using radial grid of  845 points,  6 beta functions with: 
                l(1) =   0
                l(2) =   0
                l(3) =   1
                l(4) =   1
                l(5) =   2
                l(6) =   2
     Q(r) pseudized with  8 coefficients,  rinner =    1.500   1.500   1.500
                                                       1.500   1.500

     PseudoPot. # 2 for H  read from file:
     /work/home/mayuan/code/my_script/scripts_tests/out2/200.0/pp/h_pbe_v1.uspp.F.UPF
     MD5 check sum: 3408e3ff4ec8b0a4e358431e7e038a48
     Pseudo is Ultrasoft, Zval =  1.0
     Generated by new atomic code, or converted to UPF format
     Using radial grid of  615 points,  2 beta functions with: 
                l(1) =   0
                l(2) =   0
     Q(r) pseudized with  8 coefficients,  rinner =    0.700

     atomic species   valence    mass     pseudopotential
        Ca            10.00    40.07800     Ca( 1.00)
        H              1.00     1.00794     H ( 1.00)

     48 Sym. Ops., with inversion, found



   Cartesian axes

     site n.     atom                  positions (alat units)
         1           Ca  tau(   1) = (   0.0000000   0.0000000   0.0000000  )
         2           H   tau(   2) = (   0.2886751   0.0000000   0.5773503  )
         3           H   tau(   3) = (   0.2886751   0.5773503   0.0000000  )
         4           H   tau(   4) = (   0.5773503   0.2886751   0.0000000  )
         5           H   tau(   5) = (   0.0000000   0.2886751   0.5773503  )
         6           H   tau(   6) = (   0.0000000   0.5773503   0.2886751  )
         7           H   tau(   7) = (   0.5773503   0.0000000   0.2886751  )

     number of k points=  4352  Methfessel-Paxton smearing, width (Ry)=  0.0200

     Number of k-points >= 100: set verbosity='high' to print them.

     Dense  grid:    43227 G-vectors     FFT dimensions: (  48,  48,  48)

     Smooth grid:     8391 G-vectors     FFT dimensions: (  27,  27,  27)

     Estimated max dynamical RAM per process >       8.31 MB

     Estimated total dynamical RAM >     398.79 MB

     The potential is recalculated from file :
     ./tmp/_ph0/Ca1H6.save/charge-density

     Starting wfcs are   16 atomic wfcs

     Band Structure Calculation
     Davidson diagonalization with overlap

     ethr =  6.25E-11,  avg # of iterations = 15.0

     total cpu time spent up to now is       33.9 secs

     End of band structure calculation

     Number of k-points >= 100: set verbosity='high' to print the bands.

     the Fermi energy is    17.0980 ev

     Writing output data file ./tmp/_ph0/Ca1H6.save/

     Electron-phonon coefficients for Ca1H6                                     

     bravais-lattice index     =            0
     lattice parameter (alat)  =       5.5613  a.u.
     unit-cell volume          =     132.4087 (a.u.)^3
     number of atoms/cell      =            7
     number of atomic types    =            2
     kinetic-energy cut-off    =      60.0000  Ry
     charge density cut-off    =     720.0000  Ry
     convergence threshold     =      1.0E-16
     beta                      =       0.7000
     number of iterations used =            4
     Exchange-correlation= PBE
                           (   1   4   3   4   0   0   0)


     celldm(1)=    5.56134  celldm(2)=    0.00000  celldm(3)=    0.00000
     celldm(4)=    0.00000  celldm(5)=    0.00000  celldm(6)=    0.00000

     crystal axes: (cart. coord. in units of alat)
               a(1) = ( -0.5774  0.5774  0.5774 )  
               a(2) = (  0.5774 -0.5774  0.5774 )  
               a(3) = (  0.5774  0.5774 -0.5774 )  

     reciprocal axes: (cart. coord. in units 2 pi/alat)
               b(1) = ( -0.0000  0.8660  0.8660 )  
               b(2) = (  0.8660 -0.0000  0.8660 )  
               b(3) = (  0.8660  0.8660  0.0000 )  


     Atoms inside the unit cell: 

     Cartesian axes

     site n.  atom      mass           positions (alat units)
        1     Ca  40.0780   tau(    1) = (    0.00000    0.00000    0.00000  )
        2     H    1.0079   tau(    2) = (    0.28868    0.00000    0.57735  )
        3     H    1.0079   tau(    3) = (    0.28868    0.57735    0.00000  )
        4     H    1.0079   tau(    4) = (    0.57735    0.28868    0.00000  )
        5     H    1.0079   tau(    5) = (    0.00000    0.28868    0.57735  )
        6     H    1.0079   tau(    6) = (    0.00000    0.57735    0.28868  )
        7     H    1.0079   tau(    7) = (    0.57735    0.00000    0.28868  )

     Computing dynamical matrix for 
                    q = (   0.2165064   0.1082532   0.1082532 )
 
      2 Sym.Ops. (no q -> -q+G )


     G cutoff =  564.0682  (   3604 G-vectors)     FFT grid: ( 48, 48, 48)
     G cutoff =  188.0227  (    699 G-vectors)  smooth grid: ( 27, 27, 27)

     number of k points=  4352  Methfessel-Paxton smearing, width (Ry)=  0.0200

     PseudoPot. # 1 for Ca read from file:
     /work/home/mayuan/code/my_script/scripts_tests/out2/200.0/pp/ca_pbe_v1.uspp.F.UPF
     MD5 check sum: 403a4c14b9e4d4dfdc3024c9a3812218
     Pseudo is Ultrasoft + core correction, Zval = 10.0
     Generated by new atomic code, or converted to UPF format
     Using radial grid of  845 points,  6 beta functions with: 
                l(1) =   0
                l(2) =   0
                l(3) =   1
                l(4) =   1
                l(5) =   2
                l(6) =   2
     Q(r) pseudized with  8 coefficients,  rinner =    1.500   1.500   1.500
                                                       1.500   1.500

     PseudoPot. # 2 for H  read from file:
     /work/home/mayuan/code/my_script/scripts_tests/out2/200.0/pp/h_pbe_v1.uspp.F.UPF
     MD5 check sum: 3408e3ff4ec8b0a4e358431e7e038a48
     Pseudo is Ultrasoft, Zval =  1.0
     Generated by new atomic code, or converted to UPF format
     Using radial grid of  615 points,  2 beta functions with: 
                l(1) =   0
                l(2) =   0
     Q(r) pseudized with  8 coefficients,  rinner =    0.700

     Mode symmetry, C_s (m)     point group:


     Atomic displacements:
     There are   21 irreducible representations

     Representation     1      1 modes -  To be done

     Representation     2      1 modes -  To be done

     Representation     3      1 modes -  To be done

     Representation     4      1 modes -  To be done

     Representation     5      1 modes -  To be done

     Representation     6      1 modes -  To be done

     Representation     7      1 modes -  To be done

     Representation     8      1 modes -  To be done

     Representation     9      1 modes -  To be done

     Representation    10      1 modes -  To be done

     Representation    11      1 modes -  To be done

     Representation    12      1 modes -  To be done

     Representation    13      1 modes -  To be done

     Representation    14      1 modes -  To be done

     Representation    15      1 modes -  To be done

     Representation    16      1 modes -  To be done

     Representation    17      1 modes -  To be done

     Representation    18      1 modes -  To be done

     Representation    19      1 modes -  To be done

     Representation    20      1 modes -  To be done

     Representation    21      1 modes -  To be done



     Alpha used in Ewald sum =   2.8000
     PHONON       :     57.59s CPU   1m 5.80s WALL



     Representation #   1 mode #   1

     Self-consistent Calculation

      iter #   1 total cpu time :    81.5 secs   av.it.:   4.2
      thresh= 1.000E-02 alpha_mix =  0.700 |ddv_scf|^2 =  2.482E-04

      iter #   2 total cpu time :   114.3 secs   av.it.:   8.6
      thresh= 1.575E-03 alpha_mix =  0.700 |ddv_scf|^2 =  1.687E-02

      iter #   3 total cpu time :   147.0 secs   av.it.:   6.5
      thresh= 1.000E-02 alpha_mix =  0.700 |ddv_scf|^2 =  1.176E-08

      iter #   4 total cpu time :   179.2 secs   av.it.:   9.3
      thresh= 1.084E-05 alpha_mix =  0.700 |ddv_scf|^2 =  2.296E-10

      iter #   5 total cpu time :   212.6 secs   av.it.:   9.7
      thresh= 1.515E-06 alpha_mix =  0.700 |ddv_scf|^2 =  1.977E-11

      iter #   6 total cpu time :   244.7 secs   av.it.:   9.5
      thresh= 4.447E-07 alpha_mix =  0.700 |ddv_scf|^2 =  1.585E-10

      iter #   7 total cpu time :   279.5 secs   av.it.:   6.4
      thresh= 1.259E-06 alpha_mix =  0.700 |ddv_scf|^2 =  6.537E-12

      iter #   8 total cpu time :   319.8 secs   av.it.:   8.5
      thresh= 2.557E-07 alpha_mix =  0.700 |ddv_scf|^2 =  2.551E-13

      iter #   9 total cpu time :   359.3 secs   av.it.:   8.8
      thresh= 5.051E-08 alpha_mix =  0.700 |ddv_scf|^2 =  3.850E-12

      iter #  10 total cpu time :   401.0 secs   av.it.:   6.6
      thresh= 1.962E-07 alpha_mix =  0.700 |ddv_scf|^2 =  3.670E-15

      iter #  11 total cpu time :   440.7 secs   av.it.:   9.2
      thresh= 6.058E-09 alpha_mix =  0.700 |ddv_scf|^2 =  3.877E-16

      iter #  12 total cpu time :   483.6 secs   av.it.:   9.3
      thresh= 1.969E-09 alpha_mix =  0.700 |ddv_scf|^2 =  4.274E-17

     End of self-consistent calculation

     Convergence has been achieved 


     Representation #   2 mode #   2

     Self-consistent Calculation

      iter #   1 total cpu time :   514.8 secs   av.it.:   4.3
      thresh= 1.000E-02 alpha_mix =  0.700 |ddv_scf|^2 =  9.791E-05

      iter #   2 total cpu time :   542.4 secs   av.it.:   8.6
      thresh= 9.895E-04 alpha_mix =  0.700 |ddv_scf|^2 =  6.621E-03

      iter #   3 total cpu time :   576.7 secs   av.it.:   6.1
      thresh= 8.137E-03 alpha_mix =  0.700 |ddv_scf|^2 =  5.305E-08

      iter #   4 total cpu time :   608.7 secs   av.it.:   9.1
      thresh= 2.303E-05 alpha_mix =  0.700 |ddv_scf|^2 =  4.066E-09

      iter #   5 total cpu time :   640.9 secs   av.it.:   9.0
      thresh= 6.377E-06 alpha_mix =  0.700 |ddv_scf|^2 =  3.549E-11

      iter #   6 total cpu time :   675.0 secs   av.it.:   9.3
      thresh= 5.957E-07 alpha_mix =  0.700 |ddv_scf|^2 =  1.323E-09

      iter #   7 total cpu time :   710.7 secs   av.it.:   6.3
      thresh= 3.637E-06 alpha_mix =  0.700 |ddv_scf|^2 =  2.823E-12

      iter #   8 total cpu time :   748.5 secs   av.it.:   9.1
      thresh= 1.680E-07 alpha_mix =  0.700 |ddv_scf|^2 =  6.472E-13

      iter #   9 total cpu time :   791.8 secs   av.it.:   8.5
      thresh= 8.045E-08 alpha_mix =  0.700 |ddv_scf|^2 =  2.895E-13

      iter #  10 total cpu time :   826.4 secs   av.it.:   7.9
      thresh= 5.381E-08 alpha_mix =  0.700 |ddv_scf|^2 =  1.526E-14

      iter #  11 total cpu time :   859.5 secs   av.it.:   8.2
      thresh= 1.235E-08 alpha_mix =  0.700 |ddv_scf|^2 =  1.091E-15

      iter #  12 total cpu time :   902.8 secs   av.it.:   8.8
      thresh= 3.302E-09 alpha_mix =  0.700 |ddv_scf|^2 =  3.026E-16

      iter #  13 total cpu time :   948.4 secs   av.it.:   7.7
      thresh= 1.740E-09 alpha_mix =  0.700 |ddv_scf|^2 =  6.110E-16

      iter #  14 total cpu time :   992.4 secs   av.it.:   7.5
      thresh= 2.472E-09 alpha_mix =  0.700 |ddv_scf|^2 =  6.988E-19

     End of self-consistent calculation

     Convergence has been achieved 


     Representation #   3 mode #   3

     Self-consistent Calculation

      iter #   1 total cpu time :  1024.0 secs   av.it.:   4.3
      thresh= 1.000E-02 alpha_mix =  0.700 |ddv_scf|^2 =  1.093E-04

      iter #   2 total cpu time :  1054.8 secs   av.it.:   8.6
      thresh= 1.045E-03 alpha_mix =  0.700 |ddv_scf|^2 =  7.400E-03

      iter #   3 total cpu time :  1086.1 secs   av.it.:   6.1
      thresh= 8.602E-03 alpha_mix =  0.700 |ddv_scf|^2 =  3.351E-08

      iter #   4 total cpu time :  1119.8 secs   av.it.:   9.5
      thresh= 1.831E-05 alpha_mix =  0.700 |ddv_scf|^2 =  2.220E-09

      iter #   5 total cpu time :  1163.1 secs   av.it.:   9.5
      thresh= 4.712E-06 alpha_mix =  0.700 |ddv_scf|^2 =  5.482E-11

      iter #   6 total cpu time :  1202.5 secs   av.it.:   9.2
      thresh= 7.404E-07 alpha_mix =  0.700 |ddv_scf|^2 =  4.052E-12

      iter #   7 total cpu time :  1246.6 secs   av.it.:   9.4
      thresh= 2.013E-07 alpha_mix =  0.700 |ddv_scf|^2 =  5.892E-12

      iter #   8 total cpu time :  1291.0 secs   av.it.:   7.9
      thresh= 2.427E-07 alpha_mix =  0.700 |ddv_scf|^2 =  1.228E-11

      iter #   9 total cpu time :  1335.9 secs   av.it.:   7.5
      thresh= 3.505E-07 alpha_mix =  0.700 |ddv_scf|^2 =  1.133E-12

      iter #  10 total cpu time :  1379.3 secs   av.it.:   7.7
      thresh= 1.065E-07 alpha_mix =  0.700 |ddv_scf|^2 =  3.913E-15

      iter #  11 total cpu time :  1424.0 secs   av.it.:   9.0
      thresh= 6.255E-09 alpha_mix =  0.700 |ddv_scf|^2 =  2.557E-16

      iter #  12 total cpu time :  1466.6 secs   av.it.:   9.3
      thresh= 1.599E-09 alpha_mix =  0.700 |ddv_scf|^2 =  7.312E-17

     End of self-consistent calculation

     Convergence has been achieved 


     Representation #   4 mode #   4

     Self-consistent Calculation

      iter #   1 total cpu time :  1502.4 secs   av.it.:   7.2
      thresh= 1.000E-02 alpha_mix =  0.700 |ddv_scf|^2 =  1.286E-02

      iter #   2 total cpu time :  1534.6 secs   av.it.:   8.7
      thresh= 1.000E-02 alpha_mix =  0.700 |ddv_scf|^2 =  8.778E-01

      iter #   3 total cpu time :  1568.7 secs   av.it.:   8.6
      thresh= 1.000E-02 alpha_mix =  0.700 |ddv_scf|^2 =  2.533E-06

      iter #   4 total cpu time :  1602.9 secs   av.it.:   9.7
      thresh= 1.592E-04 alpha_mix =  0.700 |ddv_scf|^2 =  1.615E-06

      iter #   5 total cpu time :  1639.1 secs   av.it.:   8.6
      thresh= 1.271E-04 alpha_mix =  0.700 |ddv_scf|^2 =  4.660E-09

      iter #   6 total cpu time :  1678.2 secs   av.it.:   8.8
      thresh= 6.826E-06 alpha_mix =  0.700 |ddv_scf|^2 =  5.649E-10

      iter #   7 total cpu time :  1716.9 secs   av.it.:   8.5
      thresh= 2.377E-06 alpha_mix =  0.700 |ddv_scf|^2 =  8.978E-10

      iter #   8 total cpu time :  1757.4 secs   av.it.:   6.4
      thresh= 2.996E-06 alpha_mix =  0.700 |ddv_scf|^2 =  9.862E-12

      iter #   9 total cpu time :  1799.3 secs   av.it.:   8.6
      thresh= 3.140E-07 alpha_mix =  0.700 |ddv_scf|^2 =  3.860E-14

      iter #  10 total cpu time :  1846.1 secs   av.it.:   9.6
      thresh= 1.965E-08 alpha_mix =  0.700 |ddv_scf|^2 =  8.461E-15

      iter #  11 total cpu time :  1890.5 secs   av.it.:   8.9
      thresh= 9.199E-09 alpha_mix =  0.700 |ddv_scf|^2 =  4.138E-16

      iter #  12 total cpu time :  1938.4 secs   av.it.:   9.2
      thresh= 2.034E-09 alpha_mix =  0.700 |ddv_scf|^2 =  7.598E-16

      iter #  13 total cpu time :  1982.5 secs   av.it.:   7.8
      thresh= 2.757E-09 alpha_mix =  0.700 |ddv_scf|^2 =  5.775E-17

     End of self-consistent calculation

     Convergence has been achieved 


     Representation #   5 mode #   5

     Self-consistent Calculation

      iter #   1 total cpu time :  2016.3 secs   av.it.:   3.9
      thresh= 1.000E-02 alpha_mix =  0.700 |ddv_scf|^2 =  3.946E-06

      iter #   2 total cpu time :  2044.3 secs   av.it.:   8.8
      thresh= 1.986E-04 alpha_mix =  0.700 |ddv_scf|^2 =  2.614E-04

      iter #   3 total cpu time :  2073.6 secs   av.it.:   6.1
      thresh= 1.617E-03 alpha_mix =  0.700 |ddv_scf|^2 =  1.005E-08

      iter #   4 total cpu time :  2104.6 secs   av.it.:   9.6
      thresh= 1.003E-05 alpha_mix =  0.700 |ddv_scf|^2 =  4.387E-10

      iter #   5 total cpu time :  2138.2 secs   av.it.:   9.5
      thresh= 2.095E-06 alpha_mix =  0.700 |ddv_scf|^2 =  5.672E-11

      iter #   6 total cpu time :  2176.1 secs   av.it.:   8.9
      thresh= 7.531E-07 alpha_mix =  0.700 |ddv_scf|^2 =  1.213E-09

      iter #   7 total cpu time :  2214.6 secs   av.it.:   6.7
      thresh= 3.483E-06 alpha_mix =  0.700 |ddv_scf|^2 =  1.214E-11

      iter #   8 total cpu time :  2245.4 secs   av.it.:   8.6
      thresh= 3.484E-07 alpha_mix =  0.700 |ddv_scf|^2 =  1.155E-11

      iter #   9 total cpu time :  2278.3 secs   av.it.:   6.9
      thresh= 3.398E-07 alpha_mix =  0.700 |ddv_scf|^2 =  4.182E-12

      iter #  10 total cpu time :  2314.7 secs   av.it.:   7.8
      thresh= 2.045E-07 alpha_mix =  0.700 |ddv_scf|^2 =  1.376E-14

      iter #  11 total cpu time :  2353.4 secs   av.it.:   9.3
      thresh= 1.173E-08 alpha_mix =  0.700 |ddv_scf|^2 =  1.400E-15

      iter #  12 total cpu time :  2392.5 secs   av.it.:   9.3
      thresh= 3.742E-09 alpha_mix =  0.700 |ddv_scf|^2 =  6.249E-16

      iter #  13 total cpu time :  2430.4 secs   av.it.:   8.4
      thresh= 2.500E-09 alpha_mix =  0.700 |ddv_scf|^2 =  1.189E-15

      iter #  14 total cpu time :  2469.9 secs   av.it.:   7.3
      thresh= 3.448E-09 alpha_mix =  0.700 |ddv_scf|^2 =  2.075E-17

     End of self-consistent calculation

     Convergence has been achieved 


     Representation #   6 mode #   6

     Self-consistent Calculation

      iter #   1 total cpu time :  2504.5 secs   av.it.:   4.3
      thresh= 1.000E-02 alpha_mix =  0.700 |ddv_scf|^2 =  9.559E-05

      iter #   2 total cpu time :  2530.4 secs   av.it.:   8.6
      thresh= 9.777E-04 alpha_mix =  0.700 |ddv_scf|^2 =  6.481E-03

      iter #   3 total cpu time :  2559.6 secs   av.it.:   6.1
      thresh= 8.050E-03 alpha_mix =  0.700 |ddv_scf|^2 =  2.234E-08

      iter #   4 total cpu time :  2593.7 secs   av.it.:   9.7
      thresh= 1.495E-05 alpha_mix =  0.700 |ddv_scf|^2 =  1.807E-09

      iter #   5 total cpu time :  2625.4 secs   av.it.:   9.7
      thresh= 4.251E-06 alpha_mix =  0.700 |ddv_scf|^2 =  1.786E-10

      iter #   6 total cpu time :  2659.7 secs   av.it.:   8.5
      thresh= 1.336E-06 alpha_mix =  0.700 |ddv_scf|^2 =  1.884E-09

      iter #   7 total cpu time :  2695.4 secs   av.it.:   7.0
      thresh= 4.340E-06 alpha_mix =  0.700 |ddv_scf|^2 =  4.145E-12

      iter #   8 total cpu time :  2729.7 secs   av.it.:   9.4
      thresh= 2.036E-07 alpha_mix =  0.700 |ddv_scf|^2 =  7.517E-12

      iter #   9 total cpu time :  2768.0 secs   av.it.:   7.6
      thresh= 2.742E-07 alpha_mix =  0.700 |ddv_scf|^2 =  2.797E-12

      iter #  10 total cpu time :  2804.0 secs   av.it.:   8.1
      thresh= 1.673E-07 alpha_mix =  0.700 |ddv_scf|^2 =  8.396E-15

      iter #  11 total cpu time :  2843.1 secs   av.it.:   9.3
      thresh= 9.163E-09 alpha_mix =  0.700 |ddv_scf|^2 =  6.586E-16

      iter #  12 total cpu time :  2880.8 secs   av.it.:   9.6
      thresh= 2.566E-09 alpha_mix =  0.700 |ddv_scf|^2 =  7.003E-16

      iter #  13 total cpu time :  2921.9 secs   av.it.:   7.8
      thresh= 2.646E-09 alpha_mix =  0.700 |ddv_scf|^2 =  2.179E-16

      iter #  14 total cpu time :  2963.7 secs   av.it.:   7.9
      thresh= 1.476E-09 alpha_mix =  0.700 |ddv_scf|^2 =  8.181E-18

     End of self-consistent calculation

     Convergence has been achieved 


     Representation #   7 mode #   7

     Self-consistent Calculation

      iter #   1 total cpu time :  2996.3 secs   av.it.:   4.1
      thresh= 1.000E-02 alpha_mix =  0.700 |ddv_scf|^2 =  2.183E-05

      iter #   2 total cpu time :  3028.1 secs   av.it.:   8.6
      thresh= 4.672E-04 alpha_mix =  0.700 |ddv_scf|^2 =  1.481E-03

      iter #   3 total cpu time :  3058.8 secs   av.it.:   6.1
      thresh= 3.848E-03 alpha_mix =  0.700 |ddv_scf|^2 =  3.024E-09

      iter #   4 total cpu time :  3089.0 secs   av.it.:   9.9
      thresh= 5.500E-06 alpha_mix =  0.700 |ddv_scf|^2 =  1.496E-09

      iter #   5 total cpu time :  3125.7 secs   av.it.:   8.9
      thresh= 3.868E-06 alpha_mix =  0.700 |ddv_scf|^2 =  3.205E-11

      iter #   6 total cpu time :  3160.6 secs   av.it.:   9.5
      thresh= 5.661E-07 alpha_mix =  0.700 |ddv_scf|^2 =  7.266E-10

      iter #   7 total cpu time :  3194.6 secs   av.it.:   6.5
      thresh= 2.696E-06 alpha_mix =  0.700 |ddv_scf|^2 =  9.209E-12

      iter #   8 total cpu time :  3230.7 secs   av.it.:   8.7
      thresh= 3.035E-07 alpha_mix =  0.700 |ddv_scf|^2 =  1.391E-12

      iter #   9 total cpu time :  3269.5 secs   av.it.:   8.4
      thresh= 1.179E-07 alpha_mix =  0.700 |ddv_scf|^2 =  1.565E-12

      iter #  10 total cpu time :  3306.7 secs   av.it.:   7.6
      thresh= 1.251E-07 alpha_mix =  0.700 |ddv_scf|^2 =  4.518E-15

      iter #  11 total cpu time :  3348.2 secs   av.it.:   9.2
      thresh= 6.722E-09 alpha_mix =  0.700 |ddv_scf|^2 =  3.312E-15

      iter #  12 total cpu time :  3389.2 secs   av.it.:   8.3
      thresh= 5.755E-09 alpha_mix =  0.700 |ddv_scf|^2 =  5.123E-16

      iter #  13 total cpu time :  3430.5 secs   av.it.:   7.6
      thresh= 2.263E-09 alpha_mix =  0.700 |ddv_scf|^2 =  1.384E-15

      iter #  14 total cpu time :  3471.6 secs   av.it.:   7.5
      thresh= 3.721E-09 alpha_mix =  0.700 |ddv_scf|^2 =  2.645E-18

     End of self-consistent calculation

     Convergence has been achieved 


     Representation #   8 mode #   8

     Self-consistent Calculation

      iter #   1 total cpu time :  3497.8 secs   av.it.:   4.0
      thresh= 1.000E-02 alpha_mix =  0.700 |ddv_scf|^2 =  4.036E-05

      iter #   2 total cpu time :  3527.4 secs   av.it.:   8.6
      thresh= 6.353E-04 alpha_mix =  0.700 |ddv_scf|^2 =  2.720E-03

      iter #   3 total cpu time :  3555.6 secs   av.it.:   6.1
      thresh= 5.216E-03 alpha_mix =  0.700 |ddv_scf|^2 =  4.207E-08

      iter #   4 total cpu time :  3586.3 secs   av.it.:   9.3
      thresh= 2.051E-05 alpha_mix =  0.700 |ddv_scf|^2 =  5.068E-09

      iter #   5 total cpu time :  3624.1 secs   av.it.:   8.9
      thresh= 7.119E-06 alpha_mix =  0.700 |ddv_scf|^2 =  7.322E-11

      iter #   6 total cpu time :  3661.2 secs   av.it.:   8.9
      thresh= 8.557E-07 alpha_mix =  0.700 |ddv_scf|^2 =  1.727E-09

      iter #   7 total cpu time :  3700.6 secs   av.it.:   6.8
      thresh= 4.156E-06 alpha_mix =  0.700 |ddv_scf|^2 =  5.892E-12

      iter #   8 total cpu time :  3742.7 secs   av.it.:   8.9
      thresh= 2.427E-07 alpha_mix =  0.700 |ddv_scf|^2 =  5.883E-12

      iter #   9 total cpu time :  3781.1 secs   av.it.:   8.0
      thresh= 2.426E-07 alpha_mix =  0.700 |ddv_scf|^2 =  3.102E-12

      iter #  10 total cpu time :  3819.6 secs   av.it.:   7.8
      thresh= 1.761E-07 alpha_mix =  0.700 |ddv_scf|^2 =  1.322E-14

      iter #  11 total cpu time :  3862.4 secs   av.it.:   8.8
      thresh= 1.150E-08 alpha_mix =  0.700 |ddv_scf|^2 =  2.564E-15

      iter #  12 total cpu time :  3901.8 secs   av.it.:   8.7
      thresh= 5.064E-09 alpha_mix =  0.700 |ddv_scf|^2 =  8.585E-16

      iter #  13 total cpu time :  3945.3 secs   av.it.:   7.5
      thresh= 2.930E-09 alpha_mix =  0.700 |ddv_scf|^2 =  3.256E-16

      iter #  14 total cpu time :  3983.4 secs   av.it.:   7.9
      thresh= 1.805E-09 alpha_mix =  0.700 |ddv_scf|^2 =  6.174E-18

     End of self-consistent calculation

     Convergence has been achieved 


     Representation #   9 mode #   9

     Self-consistent Calculation

      iter #   1 total cpu time :  4013.4 secs   av.it.:   6.8
      thresh= 1.000E-02 alpha_mix =  0.700 |ddv_scf|^2 =  1.603E-03

      iter #   2 total cpu time :  4044.1 secs   av.it.:   8.7
      thresh= 4.004E-03 alpha_mix =  0.700 |ddv_scf|^2 =  1.089E-01

      iter #   3 total cpu time :  4081.7 secs   av.it.:   7.6
      thresh= 1.000E-02 alpha_mix =  0.700 |ddv_scf|^2 =  9.393E-07

      iter #   4 total cpu time :  4122.6 secs   av.it.:   9.8
      thresh= 9.692E-05 alpha_mix =  0.700 |ddv_scf|^2 =  1.960E-07

      iter #   5 total cpu time :  4158.5 secs   av.it.:   9.0
      thresh= 4.427E-05 alpha_mix =  0.700 |ddv_scf|^2 =  8.311E-10

      iter #   6 total cpu time :  4198.8 secs   av.it.:   9.6
      thresh= 2.883E-06 alpha_mix =  0.700 |ddv_scf|^2 =  2.252E-10

      iter #   7 total cpu time :  4241.9 secs   av.it.:   8.9
      thresh= 1.501E-06 alpha_mix =  0.700 |ddv_scf|^2 =  3.385E-09

      iter #   8 total cpu time :  4286.8 secs   av.it.:   6.9
      thresh= 5.818E-06 alpha_mix =  0.700 |ddv_scf|^2 =  8.791E-12

      iter #   9 total cpu time :  4331.6 secs   av.it.:   9.0
      thresh= 2.965E-07 alpha_mix =  0.700 |ddv_scf|^2 =  3.062E-11

      iter #  10 total cpu time :  4379.8 secs   av.it.:   7.6
      thresh= 5.533E-07 alpha_mix =  0.700 |ddv_scf|^2 =  3.681E-14

      iter #  11 total cpu time :  4426.9 secs   av.it.:   9.1
      thresh= 1.919E-08 alpha_mix =  0.700 |ddv_scf|^2 =  8.873E-16

      iter #  12 total cpu time :  4475.6 secs   av.it.:   9.7
      thresh= 2.979E-09 alpha_mix =  0.700 |ddv_scf|^2 =  5.249E-16

      iter #  13 total cpu time :  4528.3 secs   av.it.:   8.9
      thresh= 2.291E-09 alpha_mix =  0.700 |ddv_scf|^2 =  5.868E-16

      iter #  14 total cpu time :  4572.8 secs   av.it.:   7.3
      thresh= 2.422E-09 alpha_mix =  0.700 |ddv_scf|^2 =  6.550E-16

      iter #  15 total cpu time :  4619.6 secs   av.it.:   7.7
      thresh= 2.559E-09 alpha_mix =  0.700 |ddv_scf|^2 =  4.198E-19

     End of self-consistent calculation

     Convergence has been achieved 


     Representation #  10 mode #  10

     Self-consistent Calculation

      iter #   1 total cpu time :  4645.4 secs   av.it.:   4.4
      thresh= 1.000E-02 alpha_mix =  0.700 |ddv_scf|^2 =  1.516E-04

      iter #   2 total cpu time :  4675.1 secs   av.it.:   8.6
      thresh= 1.231E-03 alpha_mix =  0.700 |ddv_scf|^2 =  1.025E-02

      iter #   3 total cpu time :  4705.0 secs   av.it.:   6.1
      thresh= 1.000E-02 alpha_mix =  0.700 |ddv_scf|^2 =  7.944E-08

      iter #   4 total cpu time :  4736.4 secs   av.it.:   9.4
      thresh= 2.818E-05 alpha_mix =  0.700 |ddv_scf|^2 =  8.535E-09

      iter #   5 total cpu time :  4772.1 secs   av.it.:   9.1
      thresh= 9.239E-06 alpha_mix =  0.700 |ddv_scf|^2 =  1.076E-10

      iter #   6 total cpu time :  4810.8 secs   av.it.:   8.8
      thresh= 1.037E-06 alpha_mix =  0.700 |ddv_scf|^2 =  2.165E-09

      iter #   7 total cpu time :  4850.5 secs   av.it.:   6.8
      thresh= 4.653E-06 alpha_mix =  0.700 |ddv_scf|^2 =  4.204E-12

      iter #   8 total cpu time :  4895.7 secs   av.it.:   9.4
      thresh= 2.050E-07 alpha_mix =  0.700 |ddv_scf|^2 =  3.730E-12

      iter #   9 total cpu time :  4934.7 secs   av.it.:   8.2
      thresh= 1.931E-07 alpha_mix =  0.700 |ddv_scf|^2 =  2.285E-12

      iter #  10 total cpu time :  4971.4 secs   av.it.:   8.0
      thresh= 1.511E-07 alpha_mix =  0.700 |ddv_scf|^2 =  1.194E-14

      iter #  11 total cpu time :  5007.1 secs   av.it.:   8.7
      thresh= 1.093E-08 alpha_mix =  0.700 |ddv_scf|^2 =  1.142E-15

      iter #  12 total cpu time :  5047.6 secs   av.it.:   9.1
      thresh= 3.379E-09 alpha_mix =  0.700 |ddv_scf|^2 =  9.417E-16

      iter #  13 total cpu time :  5091.1 secs   av.it.:   7.6
      thresh= 3.069E-09 alpha_mix =  0.700 |ddv_scf|^2 =  1.614E-16

      iter #  14 total cpu time :  5130.3 secs   av.it.:   8.0
      thresh= 1.271E-09 alpha_mix =  0.700 |ddv_scf|^2 =  2.762E-18

     End of self-consistent calculation

     Convergence has been achieved 


     Representation #  11 mode #  11

     Self-consistent Calculation

      iter #   1 total cpu time :  5157.9 secs   av.it.:   4.2
      thresh= 1.000E-02 alpha_mix =  0.700 |ddv_scf|^2 =  8.917E-05

      iter #   2 total cpu time :  5187.9 secs   av.it.:   8.6
      thresh= 9.443E-04 alpha_mix =  0.700 |ddv_scf|^2 =  6.035E-03

      iter #   3 total cpu time :  5218.1 secs   av.it.:   6.1
      thresh= 7.768E-03 alpha_mix =  0.700 |ddv_scf|^2 =  3.805E-08

      iter #   4 total cpu time :  5253.5 secs   av.it.:   9.6
      thresh= 1.951E-05 alpha_mix =  0.700 |ddv_scf|^2 =  3.933E-09

      iter #   5 total cpu time :  5292.8 secs   av.it.:   9.3
      thresh= 6.271E-06 alpha_mix =  0.700 |ddv_scf|^2 =  9.567E-11

      iter #   6 total cpu time :  5330.6 secs   av.it.:   9.0
      thresh= 9.781E-07 alpha_mix =  0.700 |ddv_scf|^2 =  1.592E-09

      iter #   7 total cpu time :  5373.9 secs   av.it.:   6.7
      thresh= 3.990E-06 alpha_mix =  0.700 |ddv_scf|^2 =  1.396E-11

      iter #   8 total cpu time :  5413.6 secs   av.it.:   8.5
      thresh= 3.736E-07 alpha_mix =  0.700 |ddv_scf|^2 =  6.741E-12

      iter #   9 total cpu time :  5455.1 secs   av.it.:   8.0
      thresh= 2.596E-07 alpha_mix =  0.700 |ddv_scf|^2 =  4.750E-12

      iter #  10 total cpu time :  5498.0 secs   av.it.:   8.0
      thresh= 2.179E-07 alpha_mix =  0.700 |ddv_scf|^2 =  1.369E-14

      iter #  11 total cpu time :  5539.6 secs   av.it.:   9.2
      thresh= 1.170E-08 alpha_mix =  0.700 |ddv_scf|^2 =  2.844E-15

      iter #  12 total cpu time :  5580.3 secs   av.it.:   8.9
      thresh= 5.333E-09 alpha_mix =  0.700 |ddv_scf|^2 =  5.693E-16

      iter #  13 total cpu time :  5627.0 secs   av.it.:   8.0
      thresh= 2.386E-09 alpha_mix =  0.700 |ddv_scf|^2 =  8.067E-16

      iter #  14 total cpu time :  5673.8 secs   av.it.:   7.7
      thresh= 2.840E-09 alpha_mix =  0.700 |ddv_scf|^2 =  1.615E-17

     End of self-consistent calculation

     Convergence has been achieved 


     Representation #  12 mode #  12

     Self-consistent Calculation

      iter #   1 total cpu time :  5705.4 secs   av.it.:   3.6
      thresh= 1.000E-02 alpha_mix =  0.700 |ddv_scf|^2 =  6.917E-08

      iter #   2 total cpu time :  5737.1 secs   av.it.:   9.3
      thresh= 2.630E-05 alpha_mix =  0.700 |ddv_scf|^2 =  7.505E-09

      iter #   3 total cpu time :  5773.7 secs   av.it.:   9.3
      thresh= 8.663E-06 alpha_mix =  0.700 |ddv_scf|^2 =  1.770E-10

      iter #   4 total cpu time :  5811.2 secs   av.it.:   9.5
      thresh= 1.331E-06 alpha_mix =  0.700 |ddv_scf|^2 =  8.180E-12

      iter #   5 total cpu time :  5851.4 secs   av.it.:   9.6
      thresh= 2.860E-07 alpha_mix =  0.700 |ddv_scf|^2 =  1.504E-13

      iter #   6 total cpu time :  5889.2 secs   av.it.:   9.7
      thresh= 3.878E-08 alpha_mix =  0.700 |ddv_scf|^2 =  4.596E-15

      iter #   7 total cpu time :  5929.4 secs   av.it.:   9.7
      thresh= 6.780E-09 alpha_mix =  0.700 |ddv_scf|^2 =  1.830E-16

      iter #   8 total cpu time :  5977.6 secs   av.it.:   9.7
      thresh= 1.353E-09 alpha_mix =  0.700 |ddv_scf|^2 =  6.524E-18

     End of self-consistent calculation

     Convergence has been achieved 


     Representation #  13 mode #  13

     Self-consistent Calculation

      iter #   1 total cpu time :  6007.1 secs   av.it.:   3.9
      thresh= 1.000E-02 alpha_mix =  0.700 |ddv_scf|^2 =  1.114E-07

      iter #   2 total cpu time :  6035.6 secs   av.it.:   9.6
      thresh= 3.338E-05 alpha_mix =  0.700 |ddv_scf|^2 =  1.365E-08

      iter #   3 total cpu time :  6071.3 secs   av.it.:   9.4
      thresh= 1.168E-05 alpha_mix =  0.700 |ddv_scf|^2 =  2.136E-10

      iter #   4 total cpu time :  6106.0 secs   av.it.:   9.4
      thresh= 1.462E-06 alpha_mix =  0.700 |ddv_scf|^2 =  6.262E-12

      iter #   5 total cpu time :  6142.3 secs   av.it.:   9.5
      thresh= 2.502E-07 alpha_mix =  0.700 |ddv_scf|^2 =  1.659E-13

      iter #   6 total cpu time :  6180.3 secs   av.it.:   9.7
      thresh= 4.073E-08 alpha_mix =  0.700 |ddv_scf|^2 =  3.245E-15

      iter #   7 total cpu time :  6220.7 secs   av.it.:   9.7
      thresh= 5.697E-09 alpha_mix =  0.700 |ddv_scf|^2 =  1.332E-16

      iter #   8 total cpu time :  6258.8 secs   av.it.:   9.5
      thresh= 1.154E-09 alpha_mix =  0.700 |ddv_scf|^2 =  7.881E-18

     End of self-consistent calculation

     Convergence has been achieved 


     Representation #  14 mode #  14

     Self-consistent Calculation

      iter #   1 total cpu time :  6287.4 secs   av.it.:   3.9
      thresh= 1.000E-02 alpha_mix =  0.700 |ddv_scf|^2 =  1.252E-07

      iter #   2 total cpu time :  6318.8 secs   av.it.:   9.5
      thresh= 3.538E-05 alpha_mix =  0.700 |ddv_scf|^2 =  1.313E-08

      iter #   3 total cpu time :  6353.4 secs   av.it.:   9.5
      thresh= 1.146E-05 alpha_mix =  0.700 |ddv_scf|^2 =  3.005E-10

      iter #   4 total cpu time :  6392.0 secs   av.it.:   9.4
      thresh= 1.733E-06 alpha_mix =  0.700 |ddv_scf|^2 =  8.572E-12

      iter #   5 total cpu time :  6432.0 secs   av.it.:   9.5
      thresh= 2.928E-07 alpha_mix =  0.700 |ddv_scf|^2 =  2.049E-13

      iter #   6 total cpu time :  6481.8 secs   av.it.:   9.6
      thresh= 4.527E-08 alpha_mix =  0.700 |ddv_scf|^2 =  5.836E-15

      iter #   7 total cpu time :  6523.5 secs   av.it.:   9.7
      thresh= 7.639E-09 alpha_mix =  0.700 |ddv_scf|^2 =  2.317E-16

      iter #   8 total cpu time :  6566.0 secs   av.it.:   9.7
      thresh= 1.522E-09 alpha_mix =  0.700 |ddv_scf|^2 =  1.110E-17

     End of self-consistent calculation

     Convergence has been achieved 


     Representation #  15 mode #  15

     Self-consistent Calculation

      iter #   1 total cpu time :  6593.1 secs   av.it.:   3.8
      thresh= 1.000E-02 alpha_mix =  0.700 |ddv_scf|^2 =  7.607E-08

      iter #   2 total cpu time :  6622.5 secs   av.it.:   9.4
      thresh= 2.758E-05 alpha_mix =  0.700 |ddv_scf|^2 =  1.869E-09

      iter #   3 total cpu time :  6652.6 secs   av.it.:   9.8
      thresh= 4.324E-06 alpha_mix =  0.700 |ddv_scf|^2 =  1.383E-10

      iter #   4 total cpu time :  6689.5 secs   av.it.:   9.6
      thresh= 1.176E-06 alpha_mix =  0.700 |ddv_scf|^2 =  7.329E-12

      iter #   5 total cpu time :  6723.1 secs   av.it.:   9.5
      thresh= 2.707E-07 alpha_mix =  0.700 |ddv_scf|^2 =  3.764E-13

      iter #   6 total cpu time :  6758.0 secs   av.it.:   9.5
      thresh= 6.135E-08 alpha_mix =  0.700 |ddv_scf|^2 =  4.697E-15

      iter #   7 total cpu time :  6796.9 secs   av.it.:   9.6
      thresh= 6.853E-09 alpha_mix =  0.700 |ddv_scf|^2 =  1.768E-16

      iter #   8 total cpu time :  6835.1 secs   av.it.:   9.6
      thresh= 1.330E-09 alpha_mix =  0.700 |ddv_scf|^2 =  8.526E-18

     End of self-consistent calculation

     Convergence has been achieved 


     Representation #  16 mode #  16

     Self-consistent Calculation

      iter #   1 total cpu time :  6866.9 secs   av.it.:   6.5
      thresh= 1.000E-02 alpha_mix =  0.700 |ddv_scf|^2 =  1.090E-05

      iter #   2 total cpu time :  6898.5 secs   av.it.:   9.6
      thresh= 3.301E-04 alpha_mix =  0.700 |ddv_scf|^2 =  1.603E-06

      iter #   3 total cpu time :  6935.0 secs   av.it.:   9.5
      thresh= 1.266E-04 alpha_mix =  0.700 |ddv_scf|^2 =  7.048E-09

      iter #   4 total cpu time :  6976.0 secs   av.it.:   9.4
      thresh= 8.395E-06 alpha_mix =  0.700 |ddv_scf|^2 =  3.652E-10

      iter #   5 total cpu time :  7009.0 secs   av.it.:   9.3
      thresh= 1.911E-06 alpha_mix =  0.700 |ddv_scf|^2 =  2.362E-12

      iter #   6 total cpu time :  7045.9 secs   av.it.:   9.4
      thresh= 1.537E-07 alpha_mix =  0.700 |ddv_scf|^2 =  3.625E-14

      iter #   7 total cpu time :  7088.1 secs   av.it.:   9.2
      thresh= 1.904E-08 alpha_mix =  0.700 |ddv_scf|^2 =  1.576E-15

      iter #   8 total cpu time :  7125.6 secs   av.it.:   9.3
      thresh= 3.970E-09 alpha_mix =  0.700 |ddv_scf|^2 =  9.650E-17

     End of self-consistent calculation

     Convergence has been achieved 


     Representation #  17 mode #  17

     Self-consistent Calculation

      iter #   1 total cpu time :  7153.6 secs   av.it.:   3.6
      thresh= 1.000E-02 alpha_mix =  0.700 |ddv_scf|^2 =  4.781E-08

      iter #   2 total cpu time :  7184.8 secs   av.it.:   9.6
      thresh= 2.186E-05 alpha_mix =  0.700 |ddv_scf|^2 =  4.380E-09

      iter #   3 total cpu time :  7220.1 secs   av.it.:   9.6
      thresh= 6.618E-06 alpha_mix =  0.700 |ddv_scf|^2 =  1.891E-10

      iter #   4 total cpu time :  7254.8 secs   av.it.:   9.4
      thresh= 1.375E-06 alpha_mix =  0.700 |ddv_scf|^2 =  6.561E-12

      iter #   5 total cpu time :  7293.0 secs   av.it.:   9.3
      thresh= 2.561E-07 alpha_mix =  0.700 |ddv_scf|^2 =  9.170E-14

      iter #   6 total cpu time :  7334.5 secs   av.it.:   9.6
      thresh= 3.028E-08 alpha_mix =  0.700 |ddv_scf|^2 =  2.034E-15

      iter #   7 total cpu time :  7374.3 secs   av.it.:   9.8
      thresh= 4.510E-09 alpha_mix =  0.700 |ddv_scf|^2 =  1.502E-16

      iter #   8 total cpu time :  7414.0 secs   av.it.:   9.6
      thresh= 1.226E-09 alpha_mix =  0.700 |ddv_scf|^2 =  6.818E-18

     End of self-consistent calculation

     Convergence has been achieved 


     Representation #  18 mode #  18

     Self-consistent Calculation

      iter #   1 total cpu time :  7443.5 secs   av.it.:   3.5
      thresh= 1.000E-02 alpha_mix =  0.700 |ddv_scf|^2 =  2.997E-08

      iter #   2 total cpu time :  7471.0 secs   av.it.:   9.5
      thresh= 1.731E-05 alpha_mix =  0.700 |ddv_scf|^2 =  1.793E-09

      iter #   3 total cpu time :  7503.6 secs   av.it.:   9.5
      thresh= 4.234E-06 alpha_mix =  0.700 |ddv_scf|^2 =  1.716E-10

      iter #   4 total cpu time :  7534.4 secs   av.it.:   9.4
      thresh= 1.310E-06 alpha_mix =  0.700 |ddv_scf|^2 =  5.092E-12

      iter #   5 total cpu time :  7566.7 secs   av.it.:   9.4
      thresh= 2.256E-07 alpha_mix =  0.700 |ddv_scf|^2 =  6.371E-14

      iter #   6 total cpu time :  7599.0 secs   av.it.:   9.8
      thresh= 2.524E-08 alpha_mix =  0.700 |ddv_scf|^2 =  2.965E-15

      iter #   7 total cpu time :  7631.9 secs   av.it.:   9.6
      thresh= 5.445E-09 alpha_mix =  0.700 |ddv_scf|^2 =  4.688E-17

     End of self-consistent calculation

     Convergence has been achieved 


     Representation #  19 mode #  19

     Self-consistent Calculation

      iter #   1 total cpu time :  7665.1 secs   av.it.:   3.9
      thresh= 1.000E-02 alpha_mix =  0.700 |ddv_scf|^2 =  1.065E-07

      iter #   2 total cpu time :  7691.5 secs   av.it.:   9.5
      thresh= 3.264E-05 alpha_mix =  0.700 |ddv_scf|^2 =  1.001E-08

      iter #   3 total cpu time :  7721.6 secs   av.it.:   9.5
      thresh= 1.001E-05 alpha_mix =  0.700 |ddv_scf|^2 =  2.480E-10

      iter #   4 total cpu time :  7752.3 secs   av.it.:   9.6
      thresh= 1.575E-06 alpha_mix =  0.700 |ddv_scf|^2 =  1.102E-11

      iter #   5 total cpu time :  7789.5 secs   av.it.:   9.6
      thresh= 3.319E-07 alpha_mix =  0.700 |ddv_scf|^2 =  2.596E-13

      iter #   6 total cpu time :  7827.1 secs   av.it.:   9.6
      thresh= 5.095E-08 alpha_mix =  0.700 |ddv_scf|^2 =  6.714E-15

      iter #   7 total cpu time :  7868.0 secs   av.it.:   9.7
      thresh= 8.194E-09 alpha_mix =  0.700 |ddv_scf|^2 =  3.538E-16

      iter #   8 total cpu time :  7913.3 secs   av.it.:   9.5
      thresh= 1.881E-09 alpha_mix =  0.700 |ddv_scf|^2 =  1.124E-17

     End of self-consistent calculation

     Convergence has been achieved 


     Representation #  20 mode #  20

     Self-consistent Calculation

      iter #   1 total cpu time :  7942.1 secs   av.it.:   3.6
      thresh= 1.000E-02 alpha_mix =  0.700 |ddv_scf|^2 =  5.400E-08

      iter #   2 total cpu time :  7968.8 secs   av.it.:   9.3
      thresh= 2.324E-05 alpha_mix =  0.700 |ddv_scf|^2 =  3.965E-09

      iter #   3 total cpu time :  7999.3 secs   av.it.:   9.2
      thresh= 6.297E-06 alpha_mix =  0.700 |ddv_scf|^2 =  1.603E-10

      iter #   4 total cpu time :  8030.2 secs   av.it.:   9.4
      thresh= 1.266E-06 alpha_mix =  0.700 |ddv_scf|^2 =  8.847E-12

      iter #   5 total cpu time :  8066.0 secs   av.it.:   9.4
      thresh= 2.974E-07 alpha_mix =  0.700 |ddv_scf|^2 =  1.777E-13

      iter #   6 total cpu time :  8101.9 secs   av.it.:   9.6
      thresh= 4.216E-08 alpha_mix =  0.700 |ddv_scf|^2 =  5.218E-15

      iter #   7 total cpu time :  8134.7 secs   av.it.:   9.8
      thresh= 7.224E-09 alpha_mix =  0.700 |ddv_scf|^2 =  2.717E-16

      iter #   8 total cpu time :  8171.3 secs   av.it.:   9.7
      thresh= 1.648E-09 alpha_mix =  0.700 |ddv_scf|^2 =  7.755E-18

     End of self-consistent calculation

     Convergence has been achieved 


     Representation #  21 mode #  21

     Self-consistent Calculation

      iter #   1 total cpu time :  8201.7 secs   av.it.:   3.8
      thresh= 1.000E-02 alpha_mix =  0.700 |ddv_scf|^2 =  7.804E-08

      iter #   2 total cpu time :  8232.2 secs   av.it.:   9.6
      thresh= 2.794E-05 alpha_mix =  0.700 |ddv_scf|^2 =  7.274E-09

      iter #   3 total cpu time :  8267.0 secs   av.it.:   9.5
      thresh= 8.528E-06 alpha_mix =  0.700 |ddv_scf|^2 =  2.422E-10

      iter #   4 total cpu time :  8304.9 secs   av.it.:   9.4
      thresh= 1.556E-06 alpha_mix =  0.700 |ddv_scf|^2 =  7.043E-12

      iter #   5 total cpu time :  8344.8 secs   av.it.:   9.5
      thresh= 2.654E-07 alpha_mix =  0.700 |ddv_scf|^2 =  2.104E-13

      iter #   6 total cpu time :  8391.7 secs   av.it.:   9.7
      thresh= 4.587E-08 alpha_mix =  0.700 |ddv_scf|^2 =  2.953E-15

      iter #   7 total cpu time :  8432.8 secs   av.it.:   9.6
      thresh= 5.434E-09 alpha_mix =  0.700 |ddv_scf|^2 =  1.080E-16

      iter #   8 total cpu time :  8473.1 secs   av.it.:   9.6
      thresh= 1.039E-09 alpha_mix =  0.700 |ddv_scf|^2 =  4.422E-18

     End of self-consistent calculation

     Convergence has been achieved 
 
     Number of q in the star =   24
     List of q in the star:
          1   0.216506400   0.108253200   0.108253200
          2  -0.216506400   0.108253200  -0.108253200
          3   0.216506400  -0.108253200  -0.108253200
          4   0.108253200   0.216506400  -0.108253200
          5  -0.108253200  -0.216506400  -0.108253200
          6   0.108253200  -0.216506400   0.108253200
          7  -0.108253200   0.216506400   0.108253200
          8   0.108253200  -0.108253200   0.216506400
          9  -0.108253200  -0.108253200  -0.216506400
         10   0.108253200   0.108253200  -0.216506400
         11  -0.108253200   0.108253200   0.216506400
         12  -0.216506400   0.108253200   0.108253200
         13  -0.216506400  -0.108253200  -0.108253200
         14   0.216506400   0.108253200  -0.108253200
         15   0.216506400  -0.108253200   0.108253200
         16   0.108253200   0.108253200   0.216506400
         17  -0.108253200   0.108253200  -0.216506400
         18   0.108253200  -0.108253200  -0.216506400
         19  -0.108253200  -0.108253200   0.216506400
         20   0.108253200   0.216506400   0.108253200
         21   0.108253200  -0.216506400  -0.108253200
         22  -0.108253200  -0.216506400   0.108253200
         23  -0.108253200   0.216506400  -0.108253200
         24  -0.216506400  -0.108253200   0.108253200

     Diagonalizing the dynamical matrix

     q = (    0.216506400   0.108253200   0.108253200 ) 

 **************************************************************************
     freq (    1) =       5.982311 [THz] =     199.548421 [cm-1]
     freq (    2) =       6.798032 [THz] =     226.757934 [cm-1]
     freq (    3) =      11.360117 [THz] =     378.932708 [cm-1]
     freq (    4) =      30.325670 [THz] =    1011.555471 [cm-1]
     freq (    5) =      30.438849 [THz] =    1015.330721 [cm-1]
     freq (    6) =      32.103223 [THz] =    1070.848261 [cm-1]
     freq (    7) =      34.387120 [THz] =    1147.030845 [cm-1]
     freq (    8) =      35.180388 [THz] =    1173.491444 [cm-1]
     freq (    9) =      38.628219 [THz] =    1288.498693 [cm-1]
     freq (   10) =      39.106438 [THz] =    1304.450353 [cm-1]
     freq (   11) =      40.200005 [THz] =    1340.927818 [cm-1]
     freq (   12) =      42.188973 [THz] =    1407.272645 [cm-1]
     freq (   13) =      43.337867 [THz] =    1445.595637 [cm-1]
     freq (   14) =      43.531672 [THz] =    1452.060264 [cm-1]
     freq (   15) =      44.178368 [THz] =    1473.631745 [cm-1]
     freq (   16) =      44.748306 [THz] =    1492.642824 [cm-1]
     freq (   17) =      49.508302 [THz] =    1651.419185 [cm-1]
     freq (   18) =      49.803637 [THz] =    1661.270515 [cm-1]
     freq (   19) =      51.080494 [THz] =    1703.861866 [cm-1]
     freq (   20) =      59.992823 [THz] =    2001.145180 [cm-1]
     freq (   21) =      61.773085 [THz] =    2060.528322 [cm-1]
 **************************************************************************

     Mode symmetry, C_s (m)     point group:

     freq (   1-   1) =        199.5  [cm-1]   --> A''                
     freq (   2-   2) =        226.8  [cm-1]   --> A'                 
     freq (   3-   3) =        378.9  [cm-1]   --> A'                 
     freq (   4-   4) =       1011.6  [cm-1]   --> A'                 
     freq (   5-   5) =       1015.3  [cm-1]   --> A''                
     freq (   6-   6) =       1070.8  [cm-1]   --> A'                 
     freq (   7-   7) =       1147.0  [cm-1]   --> A''                
     freq (   8-   8) =       1173.5  [cm-1]   --> A'                 
     freq (   9-   9) =       1288.5  [cm-1]   --> A'                 
     freq (  10-  10) =       1304.5  [cm-1]   --> A'                 
     freq (  11-  11) =       1340.9  [cm-1]   --> A''                
     freq (  12-  12) =       1407.3  [cm-1]   --> A'                 
     freq (  13-  13) =       1445.6  [cm-1]   --> A''                
     freq (  14-  14) =       1452.1  [cm-1]   --> A'                 
     freq (  15-  15) =       1473.6  [cm-1]   --> A''                
     freq (  16-  16) =       1492.6  [cm-1]   --> A''                
     freq (  17-  17) =       1651.4  [cm-1]   --> A''                
     freq (  18-  18) =       1661.3  [cm-1]   --> A'                 
     freq (  19-  19) =       1703.9  [cm-1]   --> A''                
     freq (  20-  20) =       2001.1  [cm-1]   --> A''                
     freq (  21-  21) =       2060.5  [cm-1]   --> A'                 
     electron-phonon interaction  ...

     Gaussian Broadening:   0.005 Ry, ngauss=   0
     DOS =  1.900675 states/spin/Ry/Unit Cell at Ef= 17.155196 eV
     lambda(    1)=  0.0687   gamma=    4.46 GHz
     lambda(    2)=  0.2021   gamma=   16.95 GHz
     lambda(    3)=  0.0476   gamma=   11.15 GHz
     lambda(    4)=  0.1715   gamma=  286.25 GHz
     lambda(    5)=  0.0275   gamma=   46.29 GHz
     lambda(    6)=  0.6832   gamma= 1278.08 GHz
     lambda(    7)=  0.0991   gamma=  212.75 GHz
     lambda(    8)=  0.1683   gamma=  378.08 GHz
     lambda(    9)=  0.0162   gamma=   43.98 GHz
     lambda(   10)=  0.0083   gamma=   22.92 GHz
     lambda(   11)=  0.0073   gamma=   21.37 GHz
     lambda(   12)=  0.0101   gamma=   32.69 GHz
     lambda(   13)=  0.0004   gamma=    1.26 GHz
     lambda(   14)=  0.0010   gamma=    3.44 GHz
     lambda(   15)=  0.0013   gamma=    4.51 GHz
     lambda(   16)=  0.0013   gamma=    4.83 GHz
     lambda(   17)=  0.0017   gamma=    7.71 GHz
     lambda(   18)=  0.0018   gamma=    8.28 GHz
     lambda(   19)=  0.0020   gamma=    9.63 GHz
     lambda(   20)=  0.0071   gamma=   46.26 GHz
     lambda(   21)=  0.0013   gamma=    9.01 GHz
     Gaussian Broadening:   0.010 Ry, ngauss=   0
     DOS =  2.130656 states/spin/Ry/Unit Cell at Ef= 17.149400 eV
     lambda(    1)=  0.1867   gamma=   13.60 GHz
     lambda(    2)=  0.1253   gamma=   11.78 GHz
     lambda(    3)=  0.0318   gamma=    8.35 GHz
     lambda(    4)=  0.1237   gamma=  231.44 GHz
     lambda(    5)=  0.0574   gamma=  108.27 GHz
     lambda(    6)=  0.5908   gamma= 1238.89 GHz
     lambda(    7)=  0.2328   gamma=  560.18 GHz
     lambda(    8)=  0.0990   gamma=  249.34 GHz
     lambda(    9)=  0.0122   gamma=   37.19 GHz
     lambda(   10)=  0.0086   gamma=   26.82 GHz
     lambda(   11)=  0.0193   gamma=   63.58 GHz
     lambda(   12)=  0.0114   gamma=   41.25 GHz
     lambda(   13)=  0.0014   gamma=    5.27 GHz
     lambda(   14)=  0.0019   gamma=    7.28 GHz
     lambda(   15)=  0.0015   gamma=    5.84 GHz
     lambda(   16)=  0.0010   gamma=    4.09 GHz
     lambda(   17)=  0.0021   gamma=   10.34 GHz
     lambda(   18)=  0.0022   gamma=   11.26 GHz
     lambda(   19)=  0.0039   gamma=   20.62 GHz
     lambda(   20)=  0.0099   gamma=   72.50 GHz
     lambda(   21)=  0.0029   gamma=   22.82 GHz
     Gaussian Broadening:   0.015 Ry, ngauss=   0
     DOS =  2.235086 states/spin/Ry/Unit Cell at Ef= 17.146382 eV
     lambda(    1)=  0.2272   gamma=   17.36 GHz
     lambda(    2)=  0.1081   gamma=   10.66 GHz
     lambda(    3)=  0.0288   gamma=    7.92 GHz
     lambda(    4)=  0.1125   gamma=  220.80 GHz
     lambda(    5)=  0.0737   gamma=  145.84 GHz
     lambda(    6)=  0.5401   gamma= 1188.06 GHz
     lambda(    7)=  0.2540   gamma=  641.04 GHz
     lambda(    8)=  0.1066   gamma=  281.70 GHz
     lambda(    9)=  0.0131   gamma=   41.72 GHz
     lambda(   10)=  0.0096   gamma=   31.20 GHz
     lambda(   11)=  0.0230   gamma=   79.47 GHz
     lambda(   12)=  0.0138   gamma=   52.43 GHz
     lambda(   13)=  0.0019   gamma=    7.58 GHz
     lambda(   14)=  0.0024   gamma=    9.62 GHz
     lambda(   15)=  0.0014   gamma=    5.97 GHz
     lambda(   16)=  0.0011   gamma=    4.51 GHz
     lambda(   17)=  0.0026   gamma=   13.65 GHz
     lambda(   18)=  0.0029   gamma=   15.20 GHz
     lambda(   19)=  0.0044   gamma=   24.62 GHz
     lambda(   20)=  0.0126   gamma=   96.95 GHz
     lambda(   21)=  0.0043   gamma=   35.15 GHz
     Gaussian Broadening:   0.020 Ry, ngauss=   0
     DOS =  2.290454 states/spin/Ry/Unit Cell at Ef= 17.145317 eV
     lambda(    1)=  0.2401   gamma=   18.80 GHz
     lambda(    2)=  0.1000   gamma=   10.10 GHz
     lambda(    3)=  0.0285   gamma=    8.04 GHz
     lambda(    4)=  0.1135   gamma=  228.31 GHz
     lambda(    5)=  0.0848   gamma=  171.76 GHz
     lambda(    6)=  0.4942   gamma= 1113.98 GHz
     lambda(    7)=  0.2496   gamma=  645.55 GHz
     lambda(    8)=  0.1183   gamma=  320.18 GHz
     lambda(    9)=  0.0139   gamma=   45.41 GHz
     lambda(   10)=  0.0104   gamma=   34.94 GHz
     lambda(   11)=  0.0240   gamma=   84.78 GHz
     lambda(   12)=  0.0148   gamma=   57.76 GHz
     lambda(   13)=  0.0021   gamma=    8.78 GHz
     lambda(   14)=  0.0025   gamma=   10.45 GHz
     lambda(   15)=  0.0014   gamma=    6.15 GHz
     lambda(   16)=  0.0012   gamma=    5.19 GHz
     lambda(   17)=  0.0030   gamma=   15.87 GHz
     lambda(   18)=  0.0031   gamma=   16.83 GHz
     lambda(   19)=  0.0045   gamma=   25.49 GHz
     lambda(   20)=  0.0137   gamma=  108.08 GHz
     lambda(   21)=  0.0051   gamma=   42.47 GHz
     Gaussian Broadening:   0.025 Ry, ngauss=   0
     DOS =  2.332190 states/spin/Ry/Unit Cell at Ef= 17.144758 eV
     lambda(    1)=  0.2463   gamma=   19.63 GHz
     lambda(    2)=  0.0947   gamma=    9.75 GHz
     lambda(    3)=  0.0288   gamma=    8.27 GHz
     lambda(    4)=  0.1164   gamma=  238.37 GHz
     lambda(    5)=  0.0941   gamma=  194.18 GHz
     lambda(    6)=  0.4587   gamma= 1052.76 GHz
     lambda(    7)=  0.2451   gamma=  645.36 GHz
     lambda(    8)=  0.1275   gamma=  351.39 GHz
     lambda(    9)=  0.0146   gamma=   48.65 GHz
     lambda(   10)=  0.0111   gamma=   37.78 GHz
     lambda(   11)=  0.0243   gamma=   87.31 GHz
     lambda(   12)=  0.0154   gamma=   61.03 GHz
     lambda(   13)=  0.0023   gamma=    9.70 GHz
     lambda(   14)=  0.0026   gamma=   10.81 GHz
     lambda(   15)=  0.0015   gamma=    6.46 GHz
     lambda(   16)=  0.0013   gamma=    5.84 GHz
     lambda(   17)=  0.0032   gamma=   17.63 GHz
     lambda(   18)=  0.0032   gamma=   17.70 GHz
     lambda(   19)=  0.0044   gamma=   25.74 GHz
     lambda(   20)=  0.0145   gamma=  116.07 GHz
     lambda(   21)=  0.0057   gamma=   48.09 GHz
     Gaussian Broadening:   0.030 Ry, ngauss=   0
     DOS =  2.360595 states/spin/Ry/Unit Cell at Ef= 17.144134 eV
     lambda(    1)=  0.2516   gamma=   20.30 GHz
     lambda(    2)=  0.0908   gamma=    9.46 GHz
     lambda(    3)=  0.0294   gamma=    8.56 GHz
     lambda(    4)=  0.1181   gamma=  244.76 GHz
     lambda(    5)=  0.1024   gamma=  213.90 GHz
     lambda(    6)=  0.4332   gamma= 1006.54 GHz
     lambda(    7)=  0.2441   gamma=  650.68 GHz
     lambda(    8)=  0.1346   gamma=  375.60 GHz
     lambda(    9)=  0.0152   gamma=   51.21 GHz
     lambda(   10)=  0.0115   gamma=   39.67 GHz
     lambda(   11)=  0.0244   gamma=   88.82 GHz
     lambda(   12)=  0.0159   gamma=   63.86 GHz
     lambda(   13)=  0.0025   gamma=   10.54 GHz
     lambda(   14)=  0.0026   gamma=   11.10 GHz
     lambda(   15)=  0.0015   gamma=    6.81 GHz
     lambda(   16)=  0.0014   gamma=    6.37 GHz
     lambda(   17)=  0.0034   gamma=   19.03 GHz
     lambda(   18)=  0.0033   gamma=   18.33 GHz
     lambda(   19)=  0.0044   gamma=   26.05 GHz
     lambda(   20)=  0.0153   gamma=  124.24 GHz
     lambda(   21)=  0.0063   gamma=   54.39 GHz
     Gaussian Broadening:   0.035 Ry, ngauss=   0
     DOS =  2.381114 states/spin/Ry/Unit Cell at Ef= 17.143351 eV
     lambda(    1)=  0.2572   gamma=   20.93 GHz
     lambda(    2)=  0.0878   gamma=    9.23 GHz
     lambda(    3)=  0.0305   gamma=    8.96 GHz
     lambda(    4)=  0.1190   gamma=  248.85 GHz
     lambda(    5)=  0.1101   gamma=  231.99 GHz
     lambda(    6)=  0.4153   gamma=  973.21 GHz
     lambda(    7)=  0.2457   gamma=  660.63 GHz
     lambda(    8)=  0.1409   gamma=  396.51 GHz
     lambda(    9)=  0.0157   gamma=   53.41 GHz
     lambda(   10)=  0.0119   gamma=   41.22 GHz
     lambda(   11)=  0.0245   gamma=   90.16 GHz
     lambda(   12)=  0.0166   gamma=   67.12 GHz
     lambda(   13)=  0.0027   gamma=   11.39 GHz
     lambda(   14)=  0.0027   gamma=   11.48 GHz
     lambda(   15)=  0.0016   gamma=    7.22 GHz
     lambda(   16)=  0.0015   gamma=    6.86 GHz
     lambda(   17)=  0.0036   gamma=   20.28 GHz
     lambda(   18)=  0.0034   gamma=   18.93 GHz
     lambda(   19)=  0.0045   gamma=   26.63 GHz
     lambda(   20)=  0.0164   gamma=  133.92 GHz
     lambda(   21)=  0.0072   gamma=   62.59 GHz
     Gaussian Broadening:   0.040 Ry, ngauss=   0
     DOS =  2.398900 states/spin/Ry/Unit Cell at Ef= 17.142416 eV
     lambda(    1)=  0.2626   gamma=   21.53 GHz
     lambda(    2)=  0.0856   gamma=    9.06 GHz
     lambda(    3)=  0.0321   gamma=    9.48 GHz
     lambda(    4)=  0.1199   gamma=  252.69 GHz
     lambda(    5)=  0.1173   gamma=  248.93 GHz
     lambda(    6)=  0.4025   gamma=  950.18 GHz
     lambda(    7)=  0.2483   gamma=  672.55 GHz
     lambda(    8)=  0.1468   gamma=  416.10 GHz
     lambda(    9)=  0.0162   gamma=   55.51 GHz
     lambda(   10)=  0.0122   gamma=   42.86 GHz
     lambda(   11)=  0.0248   gamma=   91.68 GHz
     lambda(   12)=  0.0174   gamma=   71.01 GHz
     lambda(   13)=  0.0029   gamma=   12.30 GHz
     lambda(   14)=  0.0028   gamma=   12.02 GHz
     lambda(   15)=  0.0017   gamma=    7.74 GHz
     lambda(   16)=  0.0016   gamma=    7.35 GHz
     lambda(   17)=  0.0038   gamma=   21.51 GHz
     lambda(   18)=  0.0034   gamma=   19.60 GHz
     lambda(   19)=  0.0046   gamma=   27.46 GHz
     lambda(   20)=  0.0176   gamma=  145.04 GHz
     lambda(   21)=  0.0084   gamma=   73.11 GHz
     Gaussian Broadening:   0.045 Ry, ngauss=   0
     DOS =  2.416850 states/spin/Ry/Unit Cell at Ef= 17.141341 eV
     lambda(    1)=  0.2673   gamma=   22.08 GHz
     lambda(    2)=  0.0839   gamma=    8.95 GHz
     lambda(    3)=  0.0339   gamma=   10.11 GHz
     lambda(    4)=  0.1213   gamma=  257.42 GHz
     lambda(    5)=  0.1238   gamma=  264.72 GHz
     lambda(    6)=  0.3931   gamma=  935.07 GHz
     lambda(    7)=  0.2507   gamma=  684.31 GHz
     lambda(    8)=  0.1522   gamma=  434.78 GHz
     lambda(    9)=  0.0167   gamma=   57.66 GHz
     lambda(   10)=  0.0127   gamma=   44.79 GHz
     lambda(   11)=  0.0251   gamma=   93.46 GHz
     lambda(   12)=  0.0184   gamma=   75.51 GHz
     lambda(   13)=  0.0031   gamma=   13.28 GHz
     lambda(   14)=  0.0029   gamma=   12.75 GHz
     lambda(   15)=  0.0019   gamma=    8.38 GHz
     lambda(   16)=  0.0017   gamma=    7.87 GHz
     lambda(   17)=  0.0040   gamma=   22.75 GHz
     lambda(   18)=  0.0036   gamma=   20.36 GHz
     lambda(   19)=  0.0047   gamma=   28.46 GHz
     lambda(   20)=  0.0189   gamma=  157.07 GHz
     lambda(   21)=  0.0098   gamma=   85.92 GHz
     Gaussian Broadening:   0.050 Ry, ngauss=   0
     DOS =  2.436152 states/spin/Ry/Unit Cell at Ef= 17.140123 eV
     lambda(    1)=  0.2708   gamma=   22.54 GHz
     lambda(    2)=  0.0827   gamma=    8.89 GHz
     lambda(    3)=  0.0360   gamma=   10.81 GHz
     lambda(    4)=  0.1232   gamma=  263.52 GHz
     lambda(    5)=  0.1296   gamma=  279.32 GHz
     lambda(    6)=  0.3861   gamma=  925.78 GHz
     lambda(    7)=  0.2525   gamma=  694.69 GHz
     lambda(    8)=  0.1571   gamma=  452.41 GHz
     lambda(    9)=  0.0173   gamma=   59.91 GHz
     lambda(   10)=  0.0132   gamma=   47.04 GHz
     lambda(   11)=  0.0254   gamma=   95.49 GHz
     lambda(   12)=  0.0194   gamma=   80.51 GHz
     lambda(   13)=  0.0033   gamma=   14.36 GHz
     lambda(   14)=  0.0031   gamma=   13.68 GHz
     lambda(   15)=  0.0020   gamma=    9.12 GHz
     lambda(   16)=  0.0018   gamma=    8.46 GHz
     lambda(   17)=  0.0042   gamma=   24.02 GHz
     lambda(   18)=  0.0037   gamma=   21.22 GHz
     lambda(   19)=  0.0049   gamma=   29.63 GHz
     lambda(   20)=  0.0202   gamma=  169.52 GHz
     lambda(   21)=  0.0113   gamma=  100.74 GHz
 
 
     Number of q in the star =   24
     List of q in the star:
          1   0.216506400   0.108253200   0.108253200
          2  -0.216506400   0.108253200  -0.108253200
          3   0.216506400  -0.108253200  -0.108253200
          4   0.108253200   0.216506400  -0.108253200
          5  -0.108253200  -0.216506400  -0.108253200
          6   0.108253200  -0.216506400   0.108253200
          7  -0.108253200   0.216506400   0.108253200
          8   0.108253200  -0.108253200   0.216506400
          9  -0.108253200  -0.108253200  -0.216506400
         10   0.108253200   0.108253200  -0.216506400
         11  -0.108253200   0.108253200   0.216506400
         12  -0.216506400   0.108253200   0.108253200
         13  -0.216506400  -0.108253200  -0.108253200
         14   0.216506400   0.108253200  -0.108253200
         15   0.216506400  -0.108253200   0.108253200
         16   0.108253200   0.108253200   0.216506400
         17  -0.108253200   0.108253200  -0.216506400
         18   0.108253200  -0.108253200  -0.216506400
         19  -0.108253200  -0.108253200   0.216506400
         20   0.108253200   0.216506400   0.108253200
         21   0.108253200  -0.216506400  -0.108253200
         22  -0.108253200  -0.216506400   0.108253200
         23  -0.108253200   0.216506400  -0.108253200
         24  -0.216506400  -0.108253200   0.108253200
 
     init_run     :      0.07s CPU      0.16s WALL (       1 calls)
     electrons    :     30.72s CPU     33.68s WALL (       1 calls)

     Called by init_run:
     wfcinit      :      0.00s CPU      0.04s WALL (       1 calls)
     potinit      :      0.01s CPU      0.03s WALL (       1 calls)
     hinit0       :      0.03s CPU      0.03s WALL (       1 calls)

     Called by electrons:
     c_bands      :     30.68s CPU     33.64s WALL (       1 calls)
     v_of_rho     :      0.01s CPU      0.06s WALL (       2 calls)
     newd         :      0.01s CPU      0.03s WALL (       2 calls)

     Called by c_bands:
     init_us_2    :      4.01s CPU      4.45s WALL (  150688 calls)
     cegterg      :     16.74s CPU     17.99s WALL (    1107 calls)

     Called by *egterg:
     cdiaghg      :      5.79s CPU      6.20s WALL (   17127 calls)
     h_psi        :   2675.42s CPU   3244.89s WALL ( 1669396 calls)
     s_psi        :     33.40s CPU     37.89s WALL ( 3445134 calls)
     g_psi        :      0.05s CPU      0.05s WALL (   16039 calls)

     Called by h_psi:
     h_psi:calbec :     30.50s CPU     34.29s WALL ( 1669396 calls)
     vloc_psi     :   2614.70s CPU   3176.45s WALL ( 1669396 calls)
     add_vuspsi   :     16.08s CPU     18.22s WALL ( 1669396 calls)

     General routines
     calbec       :    112.11s CPU    120.97s WALL ( 3634446 calls)
     fft          :      0.70s CPU      0.96s WALL (    4375 calls)
     ffts         :      0.79s CPU      0.91s WALL (   12367 calls)
     fftw         :   3774.35s CPU   4611.11s WALL (22769088 calls)
     interpolate  :      0.31s CPU      0.38s WALL (     481 calls)
     davcio       :     22.01s CPU    856.72s WALL (  664287 calls)
 
     Parallel routines
 
     PHONON       :      1h50m CPU      2h22m WALL

     INITIALIZATION: 
     phq_setup    :      0.01s CPU      0.03s WALL (       1 calls)
     phq_init     :     25.84s CPU     28.90s WALL (       1 calls)
 
     phq_init     :     25.84s CPU     28.90s WALL (       1 calls)
     set_drhoc    :      0.04s CPU      0.04s WALL (       3 calls)
     init_vloc    :      0.00s CPU      0.01s WALL (       2 calls)
     init_us_1    :      0.05s CPU      0.12s WALL (       2 calls)
     newd         :      0.01s CPU      0.03s WALL (       2 calls)
     dvanqq       :      0.17s CPU      0.17s WALL (       1 calls)
     drho         :     15.60s CPU     17.78s WALL (       1 calls)
 
     DYNAMICAL MATRIX:
     dynmat0      :      5.75s CPU      6.27s WALL (       1 calls)
     phqscf       :   6569.71s CPU   8420.61s WALL (       1 calls)
     dynmatrix    :      0.20s CPU      0.22s WALL (       1 calls)
 
     phqscf       :   6569.71s CPU   8420.61s WALL (       1 calls)
     solve_linter :   6519.15s CPU   8362.59s WALL (      21 calls)
     drhodv       :     50.53s CPU     56.62s WALL (      21 calls)
 
     dynmat0      :      5.75s CPU      6.27s WALL (       1 calls)
     dynmat_us    :      5.71s CPU      6.21s WALL (       1 calls)
     d2ionq       :      0.01s CPU      0.01s WALL (       1 calls)
     dynmatcc     :      0.03s CPU      0.03s WALL (       1 calls)
 
     dynmat_us    :      5.71s CPU      6.21s WALL (       1 calls)
     addusdynmat  :      0.00s CPU      0.00s WALL (       1 calls)
 
     phqscf       :   6569.71s CPU   8420.61s WALL (       1 calls)
     solve_linter :   6519.15s CPU   8362.59s WALL (      21 calls)
 
     solve_linter :   6519.15s CPU   8362.59s WALL (      21 calls)
     dvqpsi_us    :     16.96s CPU     18.53s WALL (   11424 calls)
     ortho        :     58.69s CPU     61.51s WALL (  124576 calls)
     cgsolve      :   2789.19s CPU   3374.03s WALL (  124576 calls)
     incdrhoscf   :    612.27s CPU    756.55s WALL (  124576 calls)
     addusddens   :      3.86s CPU      5.14s WALL (     250 calls)
     vpsifft      :    616.24s CPU    755.98s WALL (  124576 calls)
     dv_of_drho   :      0.61s CPU      0.65s WALL (     229 calls)
     mix_pot      :     28.57s CPU     72.93s WALL (     229 calls)
     psymdvscf    :      8.55s CPU      8.91s WALL (     229 calls)
     newdq        :      3.14s CPU      3.16s WALL (     229 calls)
     adddvscf     :      4.05s CPU      4.63s WALL (  124576 calls)
     drhodvus     :     14.23s CPU     17.89s WALL (      21 calls)
 
     dvqpsi_us    :     16.96s CPU     18.53s WALL (   11424 calls)
     dvqpsi_us_on :      6.49s CPU      6.91s WALL (   11424 calls)
 
     cgsolve      :   2789.19s CPU   3374.03s WALL (  124576 calls)
     ch_psi       :   2768.32s CPU   3350.19s WALL ( 1651162 calls)
 
     ch_psi       :   2768.32s CPU   3350.19s WALL ( 1651162 calls)
     h_psi        :   2675.42s CPU   3244.89s WALL ( 1669396 calls)
     last         :     67.89s CPU     76.63s WALL ( 1651162 calls)
 
     h_psi        :   2675.42s CPU   3244.89s WALL ( 1669396 calls)
     add_vuspsi   :     16.08s CPU     18.22s WALL ( 1669396 calls)
 
     incdrhoscf   :    612.27s CPU    756.55s WALL (  124576 calls)
     addusdbec    :      3.98s CPU      4.42s WALL (  136000 calls)
 
     drhodvus     :     14.23s CPU     17.89s WALL (      21 calls)
 
      Electron-phonon coupling
     elphel       :    146.61s CPU    208.87s WALL (      21 calls)
     elphsum      :     31.49s CPU     32.14s WALL (       1 calls)
 
      General routines
     calbec       :    112.11s CPU    120.97s WALL ( 3634446 calls)
     fft          :      0.70s CPU      0.96s WALL (    4375 calls)
     ffts         :      0.79s CPU      0.91s WALL (   12367 calls)
     fftw         :   3774.35s CPU   4611.11s WALL (22769088 calls)
     davcio       :     22.01s CPU    856.72s WALL (  664287 calls)
     write_rec    :      0.16s CPU     13.38s WALL (     250 calls)
 
 
     PHONON       :      1h50m CPU      2h22m WALL

 
   This run was terminated on:   2:51:24  22Jul2022            

=------------------------------------------------------------------------------=
   JOB DONE.
=------------------------------------------------------------------------------=
