
     Program PHONON v.6.8 starts on 30Jul2022 at 23:44:25 

     This program is part of the open-source Quantum ESPRESSO suite
     for quantum simulation of materials; please cite
         "P. Giannozzi et al., J. Phys.:Condens. Matter 21 395502 (2009);
         "P. Giannozzi et al., J. Phys.:Condens. Matter 29 465901 (2017);
         "P. Giannozzi et al., J. Chem. Phys. 152 154105 (2020);
          URL http://www.quantum-espresso.org", 
     in publications or presentations arising from this work. More details at
     http://www.quantum-espresso.org/quote

     Parallel version (MPI), running on    48 processors

     MPI processes distributed on     1 nodes
     K-points division:     npool     =       4
     R & G space division:  proc/nbgrp/npool/nimage =      12
     188923 MiB available memory on the printing compute node when the environment starts
 
     Waiting for input...
     Reading input from standard input

     Reading xml data from directory:

     ./tmp/Ca1H6.save/

     IMPORTANT: XC functional enforced from input :
     Exchange-correlation= PBE
                           (   1   4   3   4   0   0   0)
     Any further DFT definition will be discarded
     Please, verify this is what you really want

 
     Parallelization info
     --------------------
     sticks:   dense  smooth     PW     G-vecs:    dense   smooth      PW
     Min         139      46     17                 3602      698     155
     Max         140      47     18                 3604      701     157
     Sum        1669     557    205                43227     8391    1865
 
     Using Slab Decomposition
 
     Reading collected, re-writing distributed wavefunctions


     Dynamical matrices for ( 8, 8, 8)  uniform grid of q-points
     (  29 q-points):
       N         xq(1)         xq(2)         xq(3) 
       1   0.000000000   0.000000000   0.000000000
       2   0.108253175   0.108253175   0.000000000
       3   0.216506351   0.216506351   0.000000000
       4   0.324759526   0.324759526   0.000000000
       5  -0.433012702  -0.433012702   0.000000000
       6   0.216506351   0.108253175   0.108253175
       7   0.324759526   0.216506351   0.108253175
       8   0.433012702   0.324759526   0.108253175
       9   0.433012702   0.216506351   0.216506351
      10   0.541265877   0.324759526   0.216506351
      11   0.216506351   0.216506351   0.216506351
      12   0.324759526   0.324759526   0.216506351
      13   0.433012702   0.433012702   0.216506351
      14  -0.000000000  -0.000000000   0.216506351
      15   0.433012702   0.324759526   0.324759526
      16  -0.000000000  -0.108253175   0.324759526
      17  -0.000000000  -0.216506351   0.433012702
      18   0.108253175  -0.108253175   0.433012702
      19  -0.866025404  -0.324759526  -0.324759526
      20  -0.757772228  -0.216506351  -0.324759526
      21  -0.649519053  -0.216506351  -0.216506351
      22   0.433012702   0.433012702   0.433012702
      23  -0.000000000  -0.000000000   0.433012702
      24  -0.000000000  -0.108253175   0.541265877
      25  -0.866025404  -0.216506351  -0.216506351
      26  -0.757772228  -0.108253175  -0.216506351
      27  -0.000000000  -0.000000000   0.649519053
      28  -0.866025404  -0.108253175  -0.108253175
      29  -0.866025404  -0.866025404  -0.866025404

     Saving dvscf to file. Distribute only q points, not irreducible represetations.

     Calculation of q =    0.3247595   0.3247595   0.0000000

     Subspace diagonalization in iterative solution of the eigenvalue problem:
     a serial algorithm will be used

 
     Parallelization info
     --------------------
     sticks:   dense  smooth     PW     G-vecs:    dense   smooth      PW
     Min         139      46     17                 3602      698     155
     Max         140      47     18                 3604      701     157
     Sum        1669     557    205                43227     8391    1865
 
     Using Slab Decomposition
 

     Title: 
     Electron-phonon coefficients for Ca1H6                                     


     bravais-lattice index     =            0
     lattice parameter (alat)  =       5.5613  a.u.
     unit-cell volume          =     132.4087 (a.u.)^3
     number of atoms/cell      =            7
     number of atomic types    =            2
     number of electrons       =        16.00
     number of Kohn-Sham states=           12
     kinetic-energy cutoff     =      60.0000  Ry
     charge density cutoff     =     720.0000  Ry
     Exchange-correlation= PBE
                           (   1   4   3   4   0   0   0)

     celldm(1)=   5.561340  celldm(2)=   0.000000  celldm(3)=   0.000000
     celldm(4)=   0.000000  celldm(5)=   0.000000  celldm(6)=   0.000000

     crystal axes: (cart. coord. in units of alat)
               a(1) = (  -0.577350   0.577350   0.577350 )  
               a(2) = (   0.577350  -0.577350   0.577350 )  
               a(3) = (   0.577350   0.577350  -0.577350 )  

     reciprocal axes: (cart. coord. in units 2 pi/alat)
               b(1) = ( -0.000000  0.866025  0.866025 )  
               b(2) = (  0.866025 -0.000000  0.866025 )  
               b(3) = (  0.866025  0.866025  0.000000 )  


     PseudoPot. # 1 for Ca read from file:
     /work/home/mayuan/code/my_script/scripts_tests/out2/200.0/pp/ca_pbe_v1.uspp.F.UPF
     MD5 check sum: 403a4c14b9e4d4dfdc3024c9a3812218
     Pseudo is Ultrasoft + core correction, Zval = 10.0
     Generated by new atomic code, or converted to UPF format
     Using radial grid of  845 points,  6 beta functions with: 
                l(1) =   0
                l(2) =   0
                l(3) =   1
                l(4) =   1
                l(5) =   2
                l(6) =   2
     Q(r) pseudized with  8 coefficients,  rinner =    1.500   1.500   1.500
                                                       1.500   1.500

     PseudoPot. # 2 for H  read from file:
     /work/home/mayuan/code/my_script/scripts_tests/out2/200.0/pp/h_pbe_v1.uspp.F.UPF
     MD5 check sum: 3408e3ff4ec8b0a4e358431e7e038a48
     Pseudo is Ultrasoft, Zval =  1.0
     Generated by new atomic code, or converted to UPF format
     Using radial grid of  615 points,  2 beta functions with: 
                l(1) =   0
                l(2) =   0
     Q(r) pseudized with  8 coefficients,  rinner =    0.700

     atomic species   valence    mass     pseudopotential
        Ca            10.00    40.07800     Ca( 1.00)
        H              1.00     1.00794     H ( 1.00)

     48 Sym. Ops., with inversion, found



   Cartesian axes

     site n.     atom                  positions (alat units)
         1           Ca  tau(   1) = (   0.0000000   0.0000000   0.0000000  )
         2           H   tau(   2) = (   0.2886751   0.0000000   0.5773503  )
         3           H   tau(   3) = (   0.2886751   0.5773503   0.0000000  )
         4           H   tau(   4) = (   0.5773503   0.2886751   0.0000000  )
         5           H   tau(   5) = (   0.0000000   0.2886751   0.5773503  )
         6           H   tau(   6) = (   0.0000000   0.5773503   0.2886751  )
         7           H   tau(   7) = (   0.5773503   0.0000000   0.2886751  )

     number of k points=  2320  Methfessel-Paxton smearing, width (Ry)=  0.0200

     Number of k-points >= 100: set verbosity='high' to print them.

     Dense  grid:    43227 G-vectors     FFT dimensions: (  48,  48,  48)

     Smooth grid:     8391 G-vectors     FFT dimensions: (  27,  27,  27)

     Estimated max dynamical RAM per process >       8.34 MB

     Estimated total dynamical RAM >     400.48 MB

     The potential is recalculated from file :
     ./tmp/_ph0/Ca1H6.q_4/Ca1H6.save/charge-density

     Starting wfcs are   16 atomic wfcs

     Band Structure Calculation
     Davidson diagonalization with overlap

     ethr =  6.25E-11,  avg # of iterations = 14.9

     total cpu time spent up to now is       14.5 secs

     End of band structure calculation

     Number of k-points >= 100: set verbosity='high' to print the bands.

     the Fermi energy is    17.0980 ev

     Writing output data file ./tmp/_ph0/Ca1H6.q_4/Ca1H6.save/

     Electron-phonon coefficients for Ca1H6                                     

     bravais-lattice index     =            0
     lattice parameter (alat)  =       5.5613  a.u.
     unit-cell volume          =     132.4087 (a.u.)^3
     number of atoms/cell      =            7
     number of atomic types    =            2
     kinetic-energy cut-off    =      60.0000  Ry
     charge density cut-off    =     720.0000  Ry
     convergence threshold     =      1.0E-16
     beta                      =       0.7000
     number of iterations used =            4
     Exchange-correlation= PBE
                           (   1   4   3   4   0   0   0)


     celldm(1)=    5.56134  celldm(2)=    0.00000  celldm(3)=    0.00000
     celldm(4)=    0.00000  celldm(5)=    0.00000  celldm(6)=    0.00000

     crystal axes: (cart. coord. in units of alat)
               a(1) = ( -0.5774  0.5774  0.5774 )  
               a(2) = (  0.5774 -0.5774  0.5774 )  
               a(3) = (  0.5774  0.5774 -0.5774 )  

     reciprocal axes: (cart. coord. in units 2 pi/alat)
               b(1) = ( -0.0000  0.8660  0.8660 )  
               b(2) = (  0.8660 -0.0000  0.8660 )  
               b(3) = (  0.8660  0.8660  0.0000 )  


     Atoms inside the unit cell: 

     Cartesian axes

     site n.  atom      mass           positions (alat units)
        1     Ca  40.0780   tau(    1) = (    0.00000    0.00000    0.00000  )
        2     H    1.0079   tau(    2) = (    0.28868    0.00000    0.57735  )
        3     H    1.0079   tau(    3) = (    0.28868    0.57735    0.00000  )
        4     H    1.0079   tau(    4) = (    0.57735    0.28868    0.00000  )
        5     H    1.0079   tau(    5) = (    0.00000    0.28868    0.57735  )
        6     H    1.0079   tau(    6) = (    0.00000    0.57735    0.28868  )
        7     H    1.0079   tau(    7) = (    0.57735    0.00000    0.28868  )

     Computing dynamical matrix for 
                    q = (   0.3247595   0.3247595   0.0000000 )
 
      4 Sym.Ops. (no q -> -q+G )


     G cutoff =  564.0682  (   3604 G-vectors)     FFT grid: ( 48, 48, 48)
     G cutoff =  188.0227  (    699 G-vectors)  smooth grid: ( 27, 27, 27)

     number of k points=  2320  Methfessel-Paxton smearing, width (Ry)=  0.0200

     PseudoPot. # 1 for Ca read from file:
     /work/home/mayuan/code/my_script/scripts_tests/out2/200.0/pp/ca_pbe_v1.uspp.F.UPF
     MD5 check sum: 403a4c14b9e4d4dfdc3024c9a3812218
     Pseudo is Ultrasoft + core correction, Zval = 10.0
     Generated by new atomic code, or converted to UPF format
     Using radial grid of  845 points,  6 beta functions with: 
                l(1) =   0
                l(2) =   0
                l(3) =   1
                l(4) =   1
                l(5) =   2
                l(6) =   2
     Q(r) pseudized with  8 coefficients,  rinner =    1.500   1.500   1.500
                                                       1.500   1.500

     PseudoPot. # 2 for H  read from file:
     /work/home/mayuan/code/my_script/scripts_tests/out2/200.0/pp/h_pbe_v1.uspp.F.UPF
     MD5 check sum: 3408e3ff4ec8b0a4e358431e7e038a48
     Pseudo is Ultrasoft, Zval =  1.0
     Generated by new atomic code, or converted to UPF format
     Using radial grid of  615 points,  2 beta functions with: 
                l(1) =   0
                l(2) =   0
     Q(r) pseudized with  8 coefficients,  rinner =    0.700

     Mode symmetry, C_2v (mm2)  point group:


     Atomic displacements:
     There are   21 irreducible representations

     Representation     1      1 modes -  To be done

     Representation     2      1 modes -  To be done

     Representation     3      1 modes -  To be done

     Representation     4      1 modes -  To be done

     Representation     5      1 modes -  To be done

     Representation     6      1 modes -  To be done

     Representation     7      1 modes -  To be done

     Representation     8      1 modes -  To be done

     Representation     9      1 modes -  To be done

     Representation    10      1 modes -  To be done

     Representation    11      1 modes -  To be done

     Representation    12      1 modes -  To be done

     Representation    13      1 modes -  To be done

     Representation    14      1 modes -  To be done

     Representation    15      1 modes -  To be done

     Representation    16      1 modes -  To be done

     Representation    17      1 modes -  To be done

     Representation    18      1 modes -  To be done

     Representation    19      1 modes -  To be done

     Representation    20      1 modes -  To be done

     Representation    21      1 modes -  To be done



     Alpha used in Ewald sum =   2.8000
     PHONON       :     21.23s CPU     32.14s WALL



     Representation #   1 mode #   1

     Self-consistent Calculation

      iter #   1 total cpu time :    37.4 secs   av.it.:   7.0
      thresh= 1.000E-02 alpha_mix =  0.700 |ddv_scf|^2 =  7.862E-04

      iter #   2 total cpu time :    45.1 secs   av.it.:   9.1
      thresh= 2.804E-03 alpha_mix =  0.700 |ddv_scf|^2 =  6.845E-03

      iter #   3 total cpu time :    50.4 secs   av.it.:   7.7
      thresh= 8.273E-03 alpha_mix =  0.700 |ddv_scf|^2 =  7.500E-06

      iter #   4 total cpu time :    62.7 secs   av.it.:   8.9
      thresh= 2.739E-04 alpha_mix =  0.700 |ddv_scf|^2 =  4.831E-08

      iter #   5 total cpu time :    72.4 secs   av.it.:   9.3
      thresh= 2.198E-05 alpha_mix =  0.700 |ddv_scf|^2 =  2.981E-09

      iter #   6 total cpu time :    79.5 secs   av.it.:   8.5
      thresh= 5.460E-06 alpha_mix =  0.700 |ddv_scf|^2 =  6.860E-11

      iter #   7 total cpu time :    85.0 secs   av.it.:   9.0
      thresh= 8.282E-07 alpha_mix =  0.700 |ddv_scf|^2 =  5.430E-13

      iter #   8 total cpu time :    95.9 secs   av.it.:   9.1
      thresh= 7.369E-08 alpha_mix =  0.700 |ddv_scf|^2 =  3.046E-14

      iter #   9 total cpu time :   105.1 secs   av.it.:   9.6
      thresh= 1.745E-08 alpha_mix =  0.700 |ddv_scf|^2 =  9.774E-15

      iter #  10 total cpu time :   112.5 secs   av.it.:   9.2
      thresh= 9.886E-09 alpha_mix =  0.700 |ddv_scf|^2 =  1.478E-14

      iter #  11 total cpu time :   119.4 secs   av.it.:   8.3
      thresh= 1.216E-08 alpha_mix =  0.700 |ddv_scf|^2 =  4.913E-16

      iter #  12 total cpu time :   127.9 secs   av.it.:   8.8
      thresh= 2.216E-09 alpha_mix =  0.700 |ddv_scf|^2 =  3.531E-17

     End of self-consistent calculation

     Convergence has been achieved 


     Representation #   2 mode #   2

     Self-consistent Calculation

      iter #   1 total cpu time :   135.7 secs   av.it.:   4.3
      thresh= 1.000E-02 alpha_mix =  0.700 |ddv_scf|^2 =  6.413E-06

      iter #   2 total cpu time :   142.3 secs   av.it.:   9.2
      thresh= 2.532E-04 alpha_mix =  0.700 |ddv_scf|^2 =  5.291E-05

      iter #   3 total cpu time :   147.0 secs   av.it.:   7.7
      thresh= 7.274E-04 alpha_mix =  0.700 |ddv_scf|^2 =  9.011E-08

      iter #   4 total cpu time :   155.4 secs   av.it.:   9.0
      thresh= 3.002E-05 alpha_mix =  0.700 |ddv_scf|^2 =  1.548E-09

      iter #   5 total cpu time :   163.5 secs   av.it.:   9.1
      thresh= 3.935E-06 alpha_mix =  0.700 |ddv_scf|^2 =  1.921E-11

      iter #   6 total cpu time :   170.6 secs   av.it.:   9.6
      thresh= 4.383E-07 alpha_mix =  0.700 |ddv_scf|^2 =  2.074E-12

      iter #   7 total cpu time :   178.0 secs   av.it.:   9.5
      thresh= 1.440E-07 alpha_mix =  0.700 |ddv_scf|^2 =  2.669E-13

      iter #   8 total cpu time :   186.2 secs   av.it.:   9.1
      thresh= 5.167E-08 alpha_mix =  0.700 |ddv_scf|^2 =  1.530E-12

      iter #   9 total cpu time :   193.6 secs   av.it.:   7.8
      thresh= 1.237E-07 alpha_mix =  0.700 |ddv_scf|^2 =  7.522E-16

      iter #  10 total cpu time :   200.2 secs   av.it.:   9.9
      thresh= 2.743E-09 alpha_mix =  0.700 |ddv_scf|^2 =  6.096E-16

      iter #  11 total cpu time :   205.8 secs   av.it.:   8.9
      thresh= 2.469E-09 alpha_mix =  0.700 |ddv_scf|^2 =  3.404E-16

      iter #  12 total cpu time :   211.8 secs   av.it.:   8.3
      thresh= 1.845E-09 alpha_mix =  0.700 |ddv_scf|^2 =  3.759E-17

     End of self-consistent calculation

     Convergence has been achieved 


     Representation #   3 mode #   3

     Self-consistent Calculation

      iter #   1 total cpu time :   223.0 secs   av.it.:   4.3
      thresh= 1.000E-02 alpha_mix =  0.700 |ddv_scf|^2 =  9.945E-06

      iter #   2 total cpu time :   230.6 secs   av.it.:   9.2
      thresh= 3.154E-04 alpha_mix =  0.700 |ddv_scf|^2 =  8.317E-05

      iter #   3 total cpu time :   236.0 secs   av.it.:   7.7
      thresh= 9.120E-04 alpha_mix =  0.700 |ddv_scf|^2 =  1.278E-07

      iter #   4 total cpu time :   241.1 secs   av.it.:   8.9
      thresh= 3.574E-05 alpha_mix =  0.700 |ddv_scf|^2 =  1.077E-09

      iter #   5 total cpu time :   248.1 secs   av.it.:   9.4
      thresh= 3.282E-06 alpha_mix =  0.700 |ddv_scf|^2 =  4.392E-11

      iter #   6 total cpu time :   256.6 secs   av.it.:   9.5
      thresh= 6.627E-07 alpha_mix =  0.700 |ddv_scf|^2 =  2.465E-12

      iter #   7 total cpu time :   264.4 secs   av.it.:   9.4
      thresh= 1.570E-07 alpha_mix =  0.700 |ddv_scf|^2 =  9.687E-13

      iter #   8 total cpu time :   270.1 secs   av.it.:   8.1
      thresh= 9.842E-08 alpha_mix =  0.700 |ddv_scf|^2 =  2.098E-13

      iter #   9 total cpu time :   276.7 secs   av.it.:   8.7
      thresh= 4.580E-08 alpha_mix =  0.700 |ddv_scf|^2 =  2.496E-13

      iter #  10 total cpu time :   284.8 secs   av.it.:   7.8
      thresh= 4.996E-08 alpha_mix =  0.700 |ddv_scf|^2 =  1.050E-15

      iter #  11 total cpu time :   295.8 secs   av.it.:   9.6
      thresh= 3.240E-09 alpha_mix =  0.700 |ddv_scf|^2 =  3.711E-16

      iter #  12 total cpu time :   302.1 secs   av.it.:   9.1
      thresh= 1.926E-09 alpha_mix =  0.700 |ddv_scf|^2 =  7.674E-18

     End of self-consistent calculation

     Convergence has been achieved 


     Representation #   4 mode #   4

     Self-consistent Calculation

      iter #   1 total cpu time :   307.5 secs   av.it.:   4.2
      thresh= 1.000E-02 alpha_mix =  0.700 |ddv_scf|^2 =  1.384E-05

      iter #   2 total cpu time :   315.0 secs   av.it.:   8.9
      thresh= 3.721E-04 alpha_mix =  0.700 |ddv_scf|^2 =  1.113E-04

      iter #   3 total cpu time :   321.4 secs   av.it.:   7.7
      thresh= 1.055E-03 alpha_mix =  0.700 |ddv_scf|^2 =  2.486E-07

      iter #   4 total cpu time :   328.6 secs   av.it.:   8.7
      thresh= 4.986E-05 alpha_mix =  0.700 |ddv_scf|^2 =  1.012E-09

      iter #   5 total cpu time :   333.7 secs   av.it.:   9.1
      thresh= 3.180E-06 alpha_mix =  0.700 |ddv_scf|^2 =  2.181E-11

      iter #   6 total cpu time :   338.8 secs   av.it.:   9.4
      thresh= 4.670E-07 alpha_mix =  0.700 |ddv_scf|^2 =  2.203E-12

      iter #   7 total cpu time :   345.7 secs   av.it.:   9.3
      thresh= 1.484E-07 alpha_mix =  0.700 |ddv_scf|^2 =  7.816E-15

      iter #   8 total cpu time :   353.0 secs   av.it.:   9.2
      thresh= 8.841E-09 alpha_mix =  0.700 |ddv_scf|^2 =  9.216E-16

      iter #   9 total cpu time :   362.5 secs   av.it.:   9.6
      thresh= 3.036E-09 alpha_mix =  0.700 |ddv_scf|^2 =  4.969E-15

      iter #  10 total cpu time :   368.0 secs   av.it.:   7.9
      thresh= 7.049E-09 alpha_mix =  0.700 |ddv_scf|^2 =  2.503E-17

     End of self-consistent calculation

     Convergence has been achieved 


     Representation #   5 mode #   5

     Self-consistent Calculation

      iter #   1 total cpu time :   374.5 secs   av.it.:   4.3
      thresh= 1.000E-02 alpha_mix =  0.700 |ddv_scf|^2 =  5.284E-06

      iter #   2 total cpu time :   381.4 secs   av.it.:   9.2
      thresh= 2.299E-04 alpha_mix =  0.700 |ddv_scf|^2 =  4.336E-05

      iter #   3 total cpu time :   388.9 secs   av.it.:   7.7
      thresh= 6.585E-04 alpha_mix =  0.700 |ddv_scf|^2 =  6.991E-08

      iter #   4 total cpu time :   394.3 secs   av.it.:   9.0
      thresh= 2.644E-05 alpha_mix =  0.700 |ddv_scf|^2 =  2.119E-09

      iter #   5 total cpu time :   399.3 secs   av.it.:   9.3
      thresh= 4.603E-06 alpha_mix =  0.700 |ddv_scf|^2 =  5.691E-11

      iter #   6 total cpu time :   409.8 secs   av.it.:   9.6
      thresh= 7.544E-07 alpha_mix =  0.700 |ddv_scf|^2 =  2.972E-12

      iter #   7 total cpu time :   417.5 secs   av.it.:   9.5
      thresh= 1.724E-07 alpha_mix =  0.700 |ddv_scf|^2 =  4.005E-13

      iter #   8 total cpu time :   424.9 secs   av.it.:   9.1
      thresh= 6.328E-08 alpha_mix =  0.700 |ddv_scf|^2 =  2.022E-12

      iter #   9 total cpu time :   430.0 secs   av.it.:   7.8
      thresh= 1.422E-07 alpha_mix =  0.700 |ddv_scf|^2 =  2.129E-13

      iter #  10 total cpu time :   435.2 secs   av.it.:   8.0
      thresh= 4.614E-08 alpha_mix =  0.700 |ddv_scf|^2 =  1.054E-15

      iter #  11 total cpu time :   442.9 secs   av.it.:   9.5
      thresh= 3.247E-09 alpha_mix =  0.700 |ddv_scf|^2 =  1.469E-16

      iter #  12 total cpu time :   450.8 secs   av.it.:   9.4
      thresh= 1.212E-09 alpha_mix =  0.700 |ddv_scf|^2 =  2.334E-17

     End of self-consistent calculation

     Convergence has been achieved 


     Representation #   6 mode #   6

     Self-consistent Calculation

      iter #   1 total cpu time :   457.4 secs   av.it.:   4.3
      thresh= 1.000E-02 alpha_mix =  0.700 |ddv_scf|^2 =  8.815E-06

      iter #   2 total cpu time :   462.6 secs   av.it.:   9.2
      thresh= 2.969E-04 alpha_mix =  0.700 |ddv_scf|^2 =  7.361E-05

      iter #   3 total cpu time :   468.2 secs   av.it.:   7.7
      thresh= 8.579E-04 alpha_mix =  0.700 |ddv_scf|^2 =  1.075E-07

      iter #   4 total cpu time :   475.1 secs   av.it.:   8.9
      thresh= 3.279E-05 alpha_mix =  0.700 |ddv_scf|^2 =  1.518E-09

      iter #   5 total cpu time :   483.3 secs   av.it.:   9.4
      thresh= 3.896E-06 alpha_mix =  0.700 |ddv_scf|^2 =  6.498E-11

      iter #   6 total cpu time :   489.3 secs   av.it.:   9.6
      thresh= 8.061E-07 alpha_mix =  0.700 |ddv_scf|^2 =  2.310E-12

      iter #   7 total cpu time :   498.0 secs   av.it.:   9.5
      thresh= 1.520E-07 alpha_mix =  0.700 |ddv_scf|^2 =  1.014E-12

      iter #   8 total cpu time :   508.0 secs   av.it.:   8.4
      thresh= 1.007E-07 alpha_mix =  0.700 |ddv_scf|^2 =  6.742E-13

      iter #   9 total cpu time :   517.6 secs   av.it.:   8.6
      thresh= 8.211E-08 alpha_mix =  0.700 |ddv_scf|^2 =  1.068E-12

      iter #  10 total cpu time :   525.5 secs   av.it.:   7.7
      thresh= 1.033E-07 alpha_mix =  0.700 |ddv_scf|^2 =  6.589E-16

      iter #  11 total cpu time :   531.2 secs   av.it.:   9.7
      thresh= 2.567E-09 alpha_mix =  0.700 |ddv_scf|^2 =  1.767E-16

      iter #  12 total cpu time :   538.9 secs   av.it.:   9.3
      thresh= 1.329E-09 alpha_mix =  0.700 |ddv_scf|^2 =  2.583E-17

     End of self-consistent calculation

     Convergence has been achieved 


     Representation #   7 mode #   7

     Self-consistent Calculation

      iter #   1 total cpu time :   546.5 secs   av.it.:   3.7
      thresh= 1.000E-02 alpha_mix =  0.700 |ddv_scf|^2 =  9.729E-08

      iter #   2 total cpu time :   552.9 secs   av.it.:   9.0
      thresh= 3.119E-05 alpha_mix =  0.700 |ddv_scf|^2 =  4.857E-09

      iter #   3 total cpu time :   558.7 secs   av.it.:   8.9
      thresh= 6.969E-06 alpha_mix =  0.700 |ddv_scf|^2 =  1.035E-10

      iter #   4 total cpu time :   566.7 secs   av.it.:   8.8
      thresh= 1.017E-06 alpha_mix =  0.700 |ddv_scf|^2 =  9.119E-13

      iter #   5 total cpu time :   577.4 secs   av.it.:   8.7
      thresh= 9.549E-08 alpha_mix =  0.700 |ddv_scf|^2 =  4.652E-15

      iter #   6 total cpu time :   589.3 secs   av.it.:   9.3
      thresh= 6.820E-09 alpha_mix =  0.700 |ddv_scf|^2 =  5.069E-17

     End of self-consistent calculation

     Convergence has been achieved 


     Representation #   8 mode #   8

     Self-consistent Calculation

      iter #   1 total cpu time :   597.7 secs   av.it.:   3.7
      thresh= 1.000E-02 alpha_mix =  0.700 |ddv_scf|^2 =  9.729E-08

      iter #   2 total cpu time :   605.0 secs   av.it.:   9.0
      thresh= 3.119E-05 alpha_mix =  0.700 |ddv_scf|^2 =  4.857E-09

      iter #   3 total cpu time :   612.6 secs   av.it.:   8.9
      thresh= 6.969E-06 alpha_mix =  0.700 |ddv_scf|^2 =  1.035E-10

      iter #   4 total cpu time :   618.9 secs   av.it.:   8.8
      thresh= 1.017E-06 alpha_mix =  0.700 |ddv_scf|^2 =  9.119E-13

      iter #   5 total cpu time :   624.4 secs   av.it.:   8.7
      thresh= 9.549E-08 alpha_mix =  0.700 |ddv_scf|^2 =  4.652E-15

      iter #   6 total cpu time :   629.8 secs   av.it.:   9.3
      thresh= 6.820E-09 alpha_mix =  0.700 |ddv_scf|^2 =  5.069E-17

     End of self-consistent calculation

     Convergence has been achieved 


     Representation #   9 mode #   9

     Self-consistent Calculation

      iter #   1 total cpu time :   640.5 secs   av.it.:   3.5
      thresh= 1.000E-02 alpha_mix =  0.700 |ddv_scf|^2 =  2.299E-08

      iter #   2 total cpu time :   651.2 secs   av.it.:   8.9
      thresh= 1.516E-05 alpha_mix =  0.700 |ddv_scf|^2 =  9.147E-10

      iter #   3 total cpu time :   659.3 secs   av.it.:   8.9
      thresh= 3.024E-06 alpha_mix =  0.700 |ddv_scf|^2 =  4.469E-11

      iter #   4 total cpu time :   664.8 secs   av.it.:   8.7
      thresh= 6.685E-07 alpha_mix =  0.700 |ddv_scf|^2 =  1.453E-12

      iter #   5 total cpu time :   671.5 secs   av.it.:   8.6
      thresh= 1.206E-07 alpha_mix =  0.700 |ddv_scf|^2 =  7.891E-15

      iter #   6 total cpu time :   679.2 secs   av.it.:   9.1
      thresh= 8.883E-09 alpha_mix =  0.700 |ddv_scf|^2 =  6.697E-17

     End of self-consistent calculation

     Convergence has been achieved 


     Representation #  10 mode #  10

     Self-consistent Calculation

      iter #   1 total cpu time :   687.5 secs   av.it.:   3.5
      thresh= 1.000E-02 alpha_mix =  0.700 |ddv_scf|^2 =  4.556E-08

      iter #   2 total cpu time :   694.0 secs   av.it.:   9.4
      thresh= 2.134E-05 alpha_mix =  0.700 |ddv_scf|^2 =  3.905E-09

      iter #   3 total cpu time :   699.8 secs   av.it.:   9.4
      thresh= 6.249E-06 alpha_mix =  0.700 |ddv_scf|^2 =  1.718E-10

      iter #   4 total cpu time :   709.0 secs   av.it.:   9.2
      thresh= 1.311E-06 alpha_mix =  0.700 |ddv_scf|^2 =  3.180E-12

      iter #   5 total cpu time :   717.7 secs   av.it.:   9.2
      thresh= 1.783E-07 alpha_mix =  0.700 |ddv_scf|^2 =  7.834E-14

      iter #   6 total cpu time :   728.5 secs   av.it.:   9.5
      thresh= 2.799E-08 alpha_mix =  0.700 |ddv_scf|^2 =  1.448E-15

      iter #   7 total cpu time :   736.7 secs   av.it.:   9.5
      thresh= 3.806E-09 alpha_mix =  0.700 |ddv_scf|^2 =  3.488E-17

     End of self-consistent calculation

     Convergence has been achieved 


     Representation #  11 mode #  11

     Self-consistent Calculation

      iter #   1 total cpu time :   746.3 secs   av.it.:   3.9
      thresh= 1.000E-02 alpha_mix =  0.700 |ddv_scf|^2 =  1.630E-07

      iter #   2 total cpu time :   753.8 secs   av.it.:   9.4
      thresh= 4.038E-05 alpha_mix =  0.700 |ddv_scf|^2 =  1.602E-08

      iter #   3 total cpu time :   761.8 secs   av.it.:   9.4
      thresh= 1.266E-05 alpha_mix =  0.700 |ddv_scf|^2 =  2.546E-10

      iter #   4 total cpu time :   768.7 secs   av.it.:   9.4
      thresh= 1.596E-06 alpha_mix =  0.700 |ddv_scf|^2 =  7.654E-12

      iter #   5 total cpu time :   782.5 secs   av.it.:   9.4
      thresh= 2.767E-07 alpha_mix =  0.700 |ddv_scf|^2 =  2.053E-13

      iter #   6 total cpu time :   791.6 secs   av.it.:   9.4
      thresh= 4.531E-08 alpha_mix =  0.700 |ddv_scf|^2 =  3.696E-15

      iter #   7 total cpu time :   797.2 secs   av.it.:   9.5
      thresh= 6.079E-09 alpha_mix =  0.700 |ddv_scf|^2 =  4.828E-17

     End of self-consistent calculation

     Convergence has been achieved 


     Representation #  12 mode #  12

     Self-consistent Calculation

      iter #   1 total cpu time :   806.4 secs   av.it.:   3.5
      thresh= 1.000E-02 alpha_mix =  0.700 |ddv_scf|^2 =  5.178E-08

      iter #   2 total cpu time :   817.2 secs   av.it.:   9.5
      thresh= 2.275E-05 alpha_mix =  0.700 |ddv_scf|^2 =  4.957E-09

      iter #   3 total cpu time :   822.4 secs   av.it.:   9.4
      thresh= 7.040E-06 alpha_mix =  0.700 |ddv_scf|^2 =  1.555E-10

      iter #   4 total cpu time :   830.8 secs   av.it.:   9.3
      thresh= 1.247E-06 alpha_mix =  0.700 |ddv_scf|^2 =  3.468E-12

      iter #   5 total cpu time :   838.3 secs   av.it.:   9.3
      thresh= 1.862E-07 alpha_mix =  0.700 |ddv_scf|^2 =  7.407E-14

      iter #   6 total cpu time :   845.9 secs   av.it.:   9.6
      thresh= 2.722E-08 alpha_mix =  0.700 |ddv_scf|^2 =  1.117E-15

      iter #   7 total cpu time :   853.7 secs   av.it.:   9.3
      thresh= 3.342E-09 alpha_mix =  0.700 |ddv_scf|^2 =  3.333E-17

     End of self-consistent calculation

     Convergence has been achieved 


     Representation #  13 mode #  13

     Self-consistent Calculation

      iter #   1 total cpu time :   863.6 secs   av.it.:   3.5
      thresh= 1.000E-02 alpha_mix =  0.700 |ddv_scf|^2 =  3.638E-08

      iter #   2 total cpu time :   872.6 secs   av.it.:   9.5
      thresh= 1.907E-05 alpha_mix =  0.700 |ddv_scf|^2 =  3.183E-09

      iter #   3 total cpu time :   879.4 secs   av.it.:   9.4
      thresh= 5.642E-06 alpha_mix =  0.700 |ddv_scf|^2 =  1.655E-10

      iter #   4 total cpu time :   887.4 secs   av.it.:   9.3
      thresh= 1.287E-06 alpha_mix =  0.700 |ddv_scf|^2 =  3.196E-12

      iter #   5 total cpu time :   897.1 secs   av.it.:   9.5
      thresh= 1.788E-07 alpha_mix =  0.700 |ddv_scf|^2 =  9.564E-14

      iter #   6 total cpu time :   905.7 secs   av.it.:   9.5
      thresh= 3.093E-08 alpha_mix =  0.700 |ddv_scf|^2 =  9.846E-16

      iter #   7 total cpu time :   914.3 secs   av.it.:   9.3
      thresh= 3.138E-09 alpha_mix =  0.700 |ddv_scf|^2 =  4.185E-17

     End of self-consistent calculation

     Convergence has been achieved 


     Representation #  14 mode #  14

     Self-consistent Calculation

      iter #   1 total cpu time :   921.5 secs   av.it.:   3.9
      thresh= 1.000E-02 alpha_mix =  0.700 |ddv_scf|^2 =  1.142E-07

      iter #   2 total cpu time :   929.3 secs   av.it.:   9.4
      thresh= 3.379E-05 alpha_mix =  0.700 |ddv_scf|^2 =  9.591E-09

      iter #   3 total cpu time :   939.1 secs   av.it.:   9.4
      thresh= 9.794E-06 alpha_mix =  0.700 |ddv_scf|^2 =  2.389E-10

      iter #   4 total cpu time :   948.8 secs   av.it.:   9.5
      thresh= 1.546E-06 alpha_mix =  0.700 |ddv_scf|^2 =  8.421E-12

      iter #   5 total cpu time :   955.6 secs   av.it.:   9.5
      thresh= 2.902E-07 alpha_mix =  0.700 |ddv_scf|^2 =  2.285E-13

      iter #   6 total cpu time :   966.4 secs   av.it.:   9.4
      thresh= 4.780E-08 alpha_mix =  0.700 |ddv_scf|^2 =  2.573E-15

      iter #   7 total cpu time :   977.1 secs   av.it.:   9.5
      thresh= 5.072E-09 alpha_mix =  0.700 |ddv_scf|^2 =  5.627E-17

     End of self-consistent calculation

     Convergence has been achieved 


     Representation #  15 mode #  15

     Self-consistent Calculation

      iter #   1 total cpu time :   986.0 secs   av.it.:   6.4
      thresh= 1.000E-02 alpha_mix =  0.700 |ddv_scf|^2 =  9.860E-06

      iter #   2 total cpu time :   991.8 secs   av.it.:   9.5
      thresh= 3.140E-04 alpha_mix =  0.700 |ddv_scf|^2 =  1.332E-06

      iter #   3 total cpu time :   999.1 secs   av.it.:   9.4
      thresh= 1.154E-04 alpha_mix =  0.700 |ddv_scf|^2 =  5.083E-09

      iter #   4 total cpu time :  1009.9 secs   av.it.:   9.3
      thresh= 7.130E-06 alpha_mix =  0.700 |ddv_scf|^2 =  2.400E-10

      iter #   5 total cpu time :  1018.7 secs   av.it.:   9.1
      thresh= 1.549E-06 alpha_mix =  0.700 |ddv_scf|^2 =  1.606E-12

      iter #   6 total cpu time :  1024.1 secs   av.it.:   9.2
      thresh= 1.267E-07 alpha_mix =  0.700 |ddv_scf|^2 =  1.049E-14

      iter #   7 total cpu time :  1031.1 secs   av.it.:   8.8
      thresh= 1.024E-08 alpha_mix =  0.700 |ddv_scf|^2 =  5.743E-16

      iter #   8 total cpu time :  1042.2 secs   av.it.:   9.2
      thresh= 2.396E-09 alpha_mix =  0.700 |ddv_scf|^2 =  3.177E-18

     End of self-consistent calculation

     Convergence has been achieved 


     Representation #  16 mode #  16

     Self-consistent Calculation

      iter #   1 total cpu time :  1052.0 secs   av.it.:   3.5
      thresh= 1.000E-02 alpha_mix =  0.700 |ddv_scf|^2 =  3.016E-08

      iter #   2 total cpu time :  1058.6 secs   av.it.:   9.5
      thresh= 1.737E-05 alpha_mix =  0.700 |ddv_scf|^2 =  2.137E-09

      iter #   3 total cpu time :  1064.5 secs   av.it.:   9.5
      thresh= 4.622E-06 alpha_mix =  0.700 |ddv_scf|^2 =  1.745E-10

      iter #   4 total cpu time :  1075.5 secs   av.it.:   9.4
      thresh= 1.321E-06 alpha_mix =  0.700 |ddv_scf|^2 =  3.021E-12

      iter #   5 total cpu time :  1085.5 secs   av.it.:   9.4
      thresh= 1.738E-07 alpha_mix =  0.700 |ddv_scf|^2 =  9.307E-14

      iter #   6 total cpu time :  1095.8 secs   av.it.:   9.6
      thresh= 3.051E-08 alpha_mix =  0.700 |ddv_scf|^2 =  1.414E-15

      iter #   7 total cpu time :  1101.5 secs   av.it.:   9.4
      thresh= 3.760E-09 alpha_mix =  0.700 |ddv_scf|^2 =  4.390E-17

     End of self-consistent calculation

     Convergence has been achieved 


     Representation #  17 mode #  17

     Self-consistent Calculation

      iter #   1 total cpu time :  1109.1 secs   av.it.:   4.0
      thresh= 1.000E-02 alpha_mix =  0.700 |ddv_scf|^2 =  1.136E-07

      iter #   2 total cpu time :  1117.7 secs   av.it.:   9.4
      thresh= 3.370E-05 alpha_mix =  0.700 |ddv_scf|^2 =  9.190E-09

      iter #   3 total cpu time :  1127.6 secs   av.it.:   9.4
      thresh= 9.587E-06 alpha_mix =  0.700 |ddv_scf|^2 =  3.080E-10

      iter #   4 total cpu time :  1134.9 secs   av.it.:   9.4
      thresh= 1.755E-06 alpha_mix =  0.700 |ddv_scf|^2 =  5.338E-12

      iter #   5 total cpu time :  1142.1 secs   av.it.:   9.2
      thresh= 2.310E-07 alpha_mix =  0.700 |ddv_scf|^2 =  2.282E-14

      iter #   6 total cpu time :  1154.1 secs   av.it.:   9.3
      thresh= 1.511E-08 alpha_mix =  0.700 |ddv_scf|^2 =  1.899E-16

      iter #   7 total cpu time :  1164.7 secs   av.it.:   9.1
      thresh= 1.378E-09 alpha_mix =  0.700 |ddv_scf|^2 =  8.704E-18

     End of self-consistent calculation

     Convergence has been achieved 


     Representation #  18 mode #  18

     Self-consistent Calculation

      iter #   1 total cpu time :  1173.4 secs   av.it.:   3.6
      thresh= 1.000E-02 alpha_mix =  0.700 |ddv_scf|^2 =  3.954E-08

      iter #   2 total cpu time :  1184.6 secs   av.it.:   9.4
      thresh= 1.989E-05 alpha_mix =  0.700 |ddv_scf|^2 =  2.892E-09

      iter #   3 total cpu time :  1195.5 secs   av.it.:   9.4
      thresh= 5.377E-06 alpha_mix =  0.700 |ddv_scf|^2 =  1.752E-10

      iter #   4 total cpu time :  1207.4 secs   av.it.:   9.4
      thresh= 1.324E-06 alpha_mix =  0.700 |ddv_scf|^2 =  3.637E-12

      iter #   5 total cpu time :  1215.5 secs   av.it.:   9.3
      thresh= 1.907E-07 alpha_mix =  0.700 |ddv_scf|^2 =  1.500E-14

      iter #   6 total cpu time :  1223.4 secs   av.it.:   9.3
      thresh= 1.225E-08 alpha_mix =  0.700 |ddv_scf|^2 =  5.980E-17

     End of self-consistent calculation

     Convergence has been achieved 


     Representation #  19 mode #  19

     Self-consistent Calculation

      iter #   1 total cpu time :  1235.0 secs   av.it.:   6.4
      thresh= 1.000E-02 alpha_mix =  0.700 |ddv_scf|^2 =  1.293E-05

      iter #   2 total cpu time :  1245.9 secs   av.it.:   9.4
      thresh= 3.595E-04 alpha_mix =  0.700 |ddv_scf|^2 =  1.857E-06

      iter #   3 total cpu time :  1254.5 secs   av.it.:   9.3
      thresh= 1.363E-04 alpha_mix =  0.700 |ddv_scf|^2 =  3.084E-09

      iter #   4 total cpu time :  1261.8 secs   av.it.:   9.0
      thresh= 5.553E-06 alpha_mix =  0.700 |ddv_scf|^2 =  1.570E-11

      iter #   5 total cpu time :  1274.0 secs   av.it.:   9.4
      thresh= 3.962E-07 alpha_mix =  0.700 |ddv_scf|^2 =  1.740E-13

      iter #   6 total cpu time :  1286.4 secs   av.it.:   9.0
      thresh= 4.172E-08 alpha_mix =  0.700 |ddv_scf|^2 =  2.432E-15

      iter #   7 total cpu time :  1296.9 secs   av.it.:   9.1
      thresh= 4.932E-09 alpha_mix =  0.700 |ddv_scf|^2 =  5.574E-17

     End of self-consistent calculation

     Convergence has been achieved 


     Representation #  20 mode #  20

     Self-consistent Calculation

      iter #   1 total cpu time :  1305.6 secs   av.it.:   4.0
      thresh= 1.000E-02 alpha_mix =  0.700 |ddv_scf|^2 =  1.136E-07

      iter #   2 total cpu time :  1314.6 secs   av.it.:   9.4
      thresh= 3.370E-05 alpha_mix =  0.700 |ddv_scf|^2 =  9.191E-09

      iter #   3 total cpu time :  1324.2 secs   av.it.:   9.4
      thresh= 9.587E-06 alpha_mix =  0.700 |ddv_scf|^2 =  3.080E-10

      iter #   4 total cpu time :  1330.9 secs   av.it.:   9.4
      thresh= 1.755E-06 alpha_mix =  0.700 |ddv_scf|^2 =  5.337E-12

      iter #   5 total cpu time :  1337.4 secs   av.it.:   9.2
      thresh= 2.310E-07 alpha_mix =  0.700 |ddv_scf|^2 =  2.282E-14

      iter #   6 total cpu time :  1347.3 secs   av.it.:   9.3
      thresh= 1.510E-08 alpha_mix =  0.700 |ddv_scf|^2 =  1.899E-16

      iter #   7 total cpu time :  1358.4 secs   av.it.:   9.1
      thresh= 1.378E-09 alpha_mix =  0.700 |ddv_scf|^2 =  8.704E-18

     End of self-consistent calculation

     Convergence has been achieved 


     Representation #  21 mode #  21

     Self-consistent Calculation

      iter #   1 total cpu time :  1365.6 secs   av.it.:   3.8
      thresh= 1.000E-02 alpha_mix =  0.700 |ddv_scf|^2 =  7.763E-08

      iter #   2 total cpu time :  1372.0 secs   av.it.:   9.4
      thresh= 2.786E-05 alpha_mix =  0.700 |ddv_scf|^2 =  5.822E-09

      iter #   3 total cpu time :  1380.9 secs   av.it.:   9.3
      thresh= 7.630E-06 alpha_mix =  0.700 |ddv_scf|^2 =  2.322E-10

      iter #   4 total cpu time :  1390.3 secs   av.it.:   9.4
      thresh= 1.524E-06 alpha_mix =  0.700 |ddv_scf|^2 =  5.210E-12

      iter #   5 total cpu time :  1401.2 secs   av.it.:   9.1
      thresh= 2.282E-07 alpha_mix =  0.700 |ddv_scf|^2 =  1.156E-14

      iter #   6 total cpu time :  1410.6 secs   av.it.:   9.4
      thresh= 1.075E-08 alpha_mix =  0.700 |ddv_scf|^2 =  7.244E-17

     End of self-consistent calculation

     Convergence has been achieved 
 
     Number of q in the star =   12
     List of q in the star:
          1   0.324759526   0.324759526   0.000000000
          2   0.324759526  -0.324759526   0.000000000
          3  -0.324759526  -0.324759526   0.000000000
          4  -0.324759526   0.324759526   0.000000000
          5   0.324759526   0.000000000  -0.324759526
          6  -0.324759526  -0.000000000   0.324759526
          7   0.324759526  -0.000000000   0.324759526
          8   0.000000000  -0.324759526  -0.324759526
          9   0.000000000   0.324759526  -0.324759526
         10  -0.000000000   0.324759526   0.324759526
         11  -0.000000000  -0.324759526   0.324759526
         12  -0.324759526   0.000000000  -0.324759526

     Diagonalizing the dynamical matrix

     q = (    0.324759526   0.324759526   0.000000000 ) 

 **************************************************************************
     freq (    1) =       8.068197 [THz] =     269.126074 [cm-1]
     freq (    2) =       9.752918 [THz] =     325.322342 [cm-1]
     freq (    3) =      13.508633 [THz] =     450.599506 [cm-1]
     freq (    4) =      29.005995 [THz] =     967.535850 [cm-1]
     freq (    5) =      31.322781 [THz] =    1044.815517 [cm-1]
     freq (    6) =      31.346615 [THz] =    1045.610523 [cm-1]
     freq (    7) =      33.022052 [THz] =    1101.497104 [cm-1]
     freq (    8) =      38.945251 [THz] =    1299.073730 [cm-1]
     freq (    9) =      39.095458 [THz] =    1304.084123 [cm-1]
     freq (   10) =      41.222030 [THz] =    1375.018917 [cm-1]
     freq (   11) =      41.242410 [THz] =    1375.698718 [cm-1]
     freq (   12) =      41.658597 [THz] =    1389.581234 [cm-1]
     freq (   13) =      42.376642 [THz] =    1413.532608 [cm-1]
     freq (   14) =      43.587110 [THz] =    1453.909492 [cm-1]
     freq (   15) =      44.409567 [THz] =    1481.343690 [cm-1]
     freq (   16) =      45.117072 [THz] =    1504.943532 [cm-1]
     freq (   17) =      45.860542 [THz] =    1529.743027 [cm-1]
     freq (   18) =      49.370092 [THz] =    1646.809012 [cm-1]
     freq (   19) =      49.436104 [THz] =    1649.010931 [cm-1]
     freq (   20) =      54.966855 [THz] =    1833.496930 [cm-1]
     freq (   21) =      58.703789 [THz] =    1958.147627 [cm-1]
 **************************************************************************

     Mode symmetry, C_2v (mm2)  point group:

     freq (   1-   1) =        269.1  [cm-1]   --> B_2  D_4  S_4      
     freq (   2-   2) =        325.3  [cm-1]   --> B_1  D_3  S_3      
     freq (   3-   3) =        450.6  [cm-1]   --> A_1  D_1  S_1      
     freq (   4-   4) =        967.5  [cm-1]   --> A_2  D_2  S_2      
     freq (   5-   5) =       1044.8  [cm-1]   --> B_2  D_4  S_4      
     freq (   6-   6) =       1045.6  [cm-1]   --> B_1  D_3  S_3      
     freq (   7-   7) =       1101.5  [cm-1]   --> A_1  D_1  S_1      
     freq (   8-   8) =       1299.1  [cm-1]   --> B_1  D_3  S_3      
     freq (   9-   9) =       1304.1  [cm-1]   --> B_2  D_4  S_4      
     freq (  10-  10) =       1375.0  [cm-1]   --> B_1  D_3  S_3      
     freq (  11-  11) =       1375.7  [cm-1]   --> B_2  D_4  S_4      
     freq (  12-  12) =       1389.6  [cm-1]   --> A_1  D_1  S_1      
     freq (  13-  13) =       1413.5  [cm-1]   --> B_2  D_4  S_4      
     freq (  14-  14) =       1453.9  [cm-1]   --> A_1  D_1  S_1      
     freq (  15-  15) =       1481.3  [cm-1]   --> A_2  D_2  S_2      
     freq (  16-  16) =       1504.9  [cm-1]   --> B_1  D_3  S_3      
     freq (  17-  17) =       1529.7  [cm-1]   --> A_1  D_1  S_1      
     freq (  18-  18) =       1646.8  [cm-1]   --> B_1  D_3  S_3      
     freq (  19-  19) =       1649.0  [cm-1]   --> A_2  D_2  S_2      
     freq (  20-  20) =       1833.5  [cm-1]   --> A_1  D_1  S_1      
     freq (  21-  21) =       1958.1  [cm-1]   --> B_1  D_3  S_3      
     electron-phonon interaction  ...

     Gaussian Broadening:   0.005 Ry, ngauss=   0
     DOS =  1.900675 states/spin/Ry/Unit Cell at Ef= 17.155196 eV
     lambda(    1)=  0.0373   gamma=    4.40 GHz
     lambda(    2)=  0.0026   gamma=    0.44 GHz
     lambda(    3)=  0.0734   gamma=   24.30 GHz
     lambda(    4)=  1.0226   gamma= 1561.52 GHz
     lambda(    5)=  0.0108   gamma=   19.15 GHz
     lambda(    6)=  0.4609   gamma=  821.98 GHz
     lambda(    7)=  0.6707   gamma= 1327.43 GHz
     lambda(    8)=  0.0029   gamma=    7.91 GHz
     lambda(    9)=  0.0429   gamma=  118.99 GHz
     lambda(   10)=  0.0046   gamma=   14.14 GHz
     lambda(   11)=  0.0181   gamma=   55.93 GHz
     lambda(   12)=  0.0727   gamma=  228.88 GHz
     lambda(   13)=  0.0061   gamma=   19.98 GHz
     lambda(   14)=  0.0134   gamma=   46.28 GHz
     lambda(   15)=  0.0036   gamma=   12.89 GHz
     lambda(   16)=  0.0017   gamma=    6.19 GHz
     lambda(   17)=  0.0159   gamma=   60.87 GHz
     lambda(   18)=  0.0045   gamma=   19.75 GHz
     lambda(   19)=  0.0095   gamma=   42.06 GHz
     lambda(   20)=  0.0052   gamma=   28.41 GHz
     lambda(   21)=  0.0027   gamma=   16.60 GHz
     Gaussian Broadening:   0.010 Ry, ngauss=   0
     DOS =  2.130656 states/spin/Ry/Unit Cell at Ef= 17.149400 eV
     lambda(    1)=  0.0799   gamma=   10.58 GHz
     lambda(    2)=  0.0141   gamma=    2.74 GHz
     lambda(    3)=  0.0783   gamma=   29.08 GHz
     lambda(    4)=  0.6405   gamma= 1096.49 GHz
     lambda(    5)=  0.0418   gamma=   83.53 GHz
     lambda(    6)=  0.2852   gamma=  570.24 GHz
     lambda(    7)=  0.4427   gamma=  982.12 GHz
     lambda(    8)=  0.0054   gamma=   16.73 GHz
     lambda(    9)=  0.0867   gamma=  269.70 GHz
     lambda(   10)=  0.0073   gamma=   25.07 GHz
     lambda(   11)=  0.0343   gamma=  118.56 GHz
     lambda(   12)=  0.1532   gamma=  540.82 GHz
     lambda(   13)=  0.0125   gamma=   45.59 GHz
     lambda(   14)=  0.0252   gamma=   97.28 GHz
     lambda(   15)=  0.0050   gamma=   20.04 GHz
     lambda(   16)=  0.0034   gamma=   14.00 GHz
     lambda(   17)=  0.0169   gamma=   72.49 GHz
     lambda(   18)=  0.0092   gamma=   45.42 GHz
     lambda(   19)=  0.0082   gamma=   40.87 GHz
     lambda(   20)=  0.0138   gamma=   84.85 GHz
     lambda(   21)=  0.0055   gamma=   38.57 GHz
     Gaussian Broadening:   0.015 Ry, ngauss=   0
     DOS =  2.235086 states/spin/Ry/Unit Cell at Ef= 17.146382 eV
     lambda(    1)=  0.0758   gamma=   10.53 GHz
     lambda(    2)=  0.0169   gamma=    3.43 GHz
     lambda(    3)=  0.0830   gamma=   32.31 GHz
     lambda(    4)=  0.5476   gamma=  983.35 GHz
     lambda(    5)=  0.0502   gamma=  105.04 GHz
     lambda(    6)=  0.2288   gamma=  479.93 GHz
     lambda(    7)=  0.4103   gamma=  954.90 GHz
     lambda(    8)=  0.0063   gamma=   20.28 GHz
     lambda(    9)=  0.0761   gamma=  248.30 GHz
     lambda(   10)=  0.0076   gamma=   27.65 GHz
     lambda(   11)=  0.0304   gamma=  110.51 GHz
     lambda(   12)=  0.1517   gamma=  561.85 GHz
     lambda(   13)=  0.0117   gamma=   44.65 GHz
     lambda(   14)=  0.0266   gamma=  107.85 GHz
     lambda(   15)=  0.0046   gamma=   19.46 GHz
     lambda(   16)=  0.0036   gamma=   15.66 GHz
     lambda(   17)=  0.0176   gamma=   79.14 GHz
     lambda(   18)=  0.0091   gamma=   47.21 GHz
     lambda(   19)=  0.0076   gamma=   39.51 GHz
     lambda(   20)=  0.0143   gamma=   92.30 GHz
     lambda(   21)=  0.0061   gamma=   44.73 GHz
     Gaussian Broadening:   0.020 Ry, ngauss=   0
     DOS =  2.290454 states/spin/Ry/Unit Cell at Ef= 17.145317 eV
     lambda(    1)=  0.0700   gamma=    9.97 GHz
     lambda(    2)=  0.0168   gamma=    3.49 GHz
     lambda(    3)=  0.0826   gamma=   32.97 GHz
     lambda(    4)=  0.4971   gamma=  914.79 GHz
     lambda(    5)=  0.0555   gamma=  119.13 GHz
     lambda(    6)=  0.2031   gamma=  436.42 GHz
     lambda(    7)=  0.3897   gamma=  929.55 GHz
     lambda(    8)=  0.0064   gamma=   21.16 GHz
     lambda(    9)=  0.0656   gamma=  219.26 GHz
     lambda(   10)=  0.0072   gamma=   26.66 GHz
     lambda(   11)=  0.0271   gamma=  100.70 GHz
     lambda(   12)=  0.1434   gamma=  544.44 GHz
     lambda(   13)=  0.0110   gamma=   43.13 GHz
     lambda(   14)=  0.0255   gamma=  105.91 GHz
     lambda(   15)=  0.0041   gamma=   17.55 GHz
     lambda(   16)=  0.0034   gamma=   15.31 GHz
     lambda(   17)=  0.0170   gamma=   78.30 GHz
     lambda(   18)=  0.0085   gamma=   45.05 GHz
     lambda(   19)=  0.0070   gamma=   37.20 GHz
     lambda(   20)=  0.0134   gamma=   88.27 GHz
     lambda(   21)=  0.0065   gamma=   48.63 GHz
     Gaussian Broadening:   0.025 Ry, ngauss=   0
     DOS =  2.332190 states/spin/Ry/Unit Cell at Ef= 17.144758 eV
     lambda(    1)=  0.0665   gamma=    9.63 GHz
     lambda(    2)=  0.0166   gamma=    3.53 GHz
     lambda(    3)=  0.0807   gamma=   32.79 GHz
     lambda(    4)=  0.4718   gamma=  884.06 GHz
     lambda(    5)=  0.0608   gamma=  132.84 GHz
     lambda(    6)=  0.1963   gamma=  429.63 GHz
     lambda(    7)=  0.3776   gamma=  917.11 GHz
     lambda(    8)=  0.0066   gamma=   22.28 GHz
     lambda(    9)=  0.0585   gamma=  199.21 GHz
     lambda(   10)=  0.0069   gamma=   26.01 GHz
     lambda(   11)=  0.0250   gamma=   94.85 GHz
     lambda(   12)=  0.1362   gamma=  526.37 GHz
     lambda(   13)=  0.0107   gamma=   42.84 GHz
     lambda(   14)=  0.0249   gamma=  105.15 GHz
     lambda(   15)=  0.0038   gamma=   16.59 GHz
     lambda(   16)=  0.0033   gamma=   14.78 GHz
     lambda(   17)=  0.0163   gamma=   76.47 GHz
     lambda(   18)=  0.0081   gamma=   44.02 GHz
     lambda(   19)=  0.0067   gamma=   36.46 GHz
     lambda(   20)=  0.0130   gamma=   87.71 GHz
     lambda(   21)=  0.0071   gamma=   54.60 GHz
     Gaussian Broadening:   0.030 Ry, ngauss=   0
     DOS =  2.360595 states/spin/Ry/Unit Cell at Ef= 17.144134 eV
     lambda(    1)=  0.0644   gamma=    9.44 GHz
     lambda(    2)=  0.0170   gamma=    3.64 GHz
     lambda(    3)=  0.0784   gamma=   32.24 GHz
     lambda(    4)=  0.4606   gamma=  873.48 GHz
     lambda(    5)=  0.0650   gamma=  143.76 GHz
     lambda(    6)=  0.1990   gamma=  440.85 GHz
     lambda(    7)=  0.3707   gamma=  911.22 GHz
     lambda(    8)=  0.0070   gamma=   23.81 GHz
     lambda(    9)=  0.0542   gamma=  186.70 GHz
     lambda(   10)=  0.0068   gamma=   26.13 GHz
     lambda(   11)=  0.0239   gamma=   91.61 GHz
     lambda(   12)=  0.1304   gamma=  510.12 GHz
     lambda(   13)=  0.0106   gamma=   42.83 GHz
     lambda(   14)=  0.0246   gamma=  105.49 GHz
     lambda(   15)=  0.0037   gamma=   16.46 GHz
     lambda(   16)=  0.0031   gamma=   14.44 GHz
     lambda(   17)=  0.0157   gamma=   74.62 GHz
     lambda(   18)=  0.0081   gamma=   44.25 GHz
     lambda(   19)=  0.0066   gamma=   36.48 GHz
     lambda(   20)=  0.0131   gamma=   89.10 GHz
     lambda(   21)=  0.0079   gamma=   61.36 GHz
     Gaussian Broadening:   0.035 Ry, ngauss=   0
     DOS =  2.381114 states/spin/Ry/Unit Cell at Ef= 17.143351 eV
     lambda(    1)=  0.0631   gamma=    9.33 GHz
     lambda(    2)=  0.0175   gamma=    3.79 GHz
     lambda(    3)=  0.0760   gamma=   31.52 GHz
     lambda(    4)=  0.4551   gamma=  870.71 GHz
     lambda(    5)=  0.0681   gamma=  151.94 GHz
     lambda(    6)=  0.2051   gamma=  458.28 GHz
     lambda(    7)=  0.3658   gamma=  907.07 GHz
     lambda(    8)=  0.0074   gamma=   25.50 GHz
     lambda(    9)=  0.0516   gamma=  179.36 GHz
     lambda(   10)=  0.0069   gamma=   26.74 GHz
     lambda(   11)=  0.0233   gamma=   90.13 GHz
     lambda(   12)=  0.1257   gamma=  496.01 GHz
     lambda(   13)=  0.0105   gamma=   42.87 GHz
     lambda(   14)=  0.0246   gamma=  106.27 GHz
     lambda(   15)=  0.0037   gamma=   16.79 GHz
     lambda(   16)=  0.0031   gamma=   14.29 GHz
     lambda(   17)=  0.0153   gamma=   73.37 GHz
     lambda(   18)=  0.0082   gamma=   45.23 GHz
     lambda(   19)=  0.0066   gamma=   36.64 GHz
     lambda(   20)=  0.0132   gamma=   90.95 GHz
     lambda(   21)=  0.0086   gamma=   67.63 GHz
     Gaussian Broadening:   0.040 Ry, ngauss=   0
     DOS =  2.398900 states/spin/Ry/Unit Cell at Ef= 17.142416 eV
     lambda(    1)=  0.0622   gamma=    9.28 GHz
     lambda(    2)=  0.0181   gamma=    3.95 GHz
     lambda(    3)=  0.0736   gamma=   30.79 GHz
     lambda(    4)=  0.4517   gamma=  870.59 GHz
     lambda(    5)=  0.0706   gamma=  158.73 GHz
     lambda(    6)=  0.2118   gamma=  476.85 GHz
     lambda(    7)=  0.3618   gamma=  903.74 GHz
     lambda(    8)=  0.0078   gamma=   27.27 GHz
     lambda(    9)=  0.0500   gamma=  175.10 GHz
     lambda(   10)=  0.0071   gamma=   27.61 GHz
     lambda(   11)=  0.0231   gamma=   90.02 GHz
     lambda(   12)=  0.1220   gamma=  484.84 GHz
     lambda(   13)=  0.0105   gamma=   43.06 GHz
     lambda(   14)=  0.0248   gamma=  108.14 GHz
     lambda(   15)=  0.0038   gamma=   17.36 GHz
     lambda(   16)=  0.0031   gamma=   14.26 GHz
     lambda(   17)=  0.0153   gamma=   73.50 GHz
     lambda(   18)=  0.0084   gamma=   46.66 GHz
     lambda(   19)=  0.0066   gamma=   36.80 GHz
     lambda(   20)=  0.0135   gamma=   93.31 GHz
     lambda(   21)=  0.0093   gamma=   73.07 GHz
     Gaussian Broadening:   0.045 Ry, ngauss=   0
     DOS =  2.416850 states/spin/Ry/Unit Cell at Ef= 17.141341 eV
     lambda(    1)=  0.0617   gamma=    9.27 GHz
     lambda(    2)=  0.0187   gamma=    4.11 GHz
     lambda(    3)=  0.0716   gamma=   30.14 GHz
     lambda(    4)=  0.4488   gamma=  871.56 GHz
     lambda(    5)=  0.0730   gamma=  165.22 GHz
     lambda(    6)=  0.2184   gamma=  495.29 GHz
     lambda(    7)=  0.3583   gamma=  901.79 GHz
     lambda(    8)=  0.0083   gamma=   29.22 GHz
     lambda(    9)=  0.0489   gamma=  172.61 GHz
     lambda(   10)=  0.0073   gamma=   28.64 GHz
     lambda(   11)=  0.0232   gamma=   91.08 GHz
     lambda(   12)=  0.1192   gamma=  477.52 GHz
     lambda(   13)=  0.0105   gamma=   43.47 GHz
     lambda(   14)=  0.0255   gamma=  111.82 GHz
     lambda(   15)=  0.0040   gamma=   18.10 GHz
     lambda(   16)=  0.0031   gamma=   14.35 GHz
     lambda(   17)=  0.0156   gamma=   75.61 GHz
     lambda(   18)=  0.0086   gamma=   48.48 GHz
     lambda(   19)=  0.0066   gamma=   36.99 GHz
     lambda(   20)=  0.0139   gamma=   96.75 GHz
     lambda(   21)=  0.0098   gamma=   77.80 GHz
     Gaussian Broadening:   0.050 Ry, ngauss=   0
     DOS =  2.436152 states/spin/Ry/Unit Cell at Ef= 17.140123 eV
     lambda(    1)=  0.0615   gamma=    9.31 GHz
     lambda(    2)=  0.0194   gamma=    4.28 GHz
     lambda(    3)=  0.0698   gamma=   29.61 GHz
     lambda(    4)=  0.4462   gamma=  873.26 GHz
     lambda(    5)=  0.0753   gamma=  171.98 GHz
     lambda(    6)=  0.2247   gamma=  513.67 GHz
     lambda(    7)=  0.3555   gamma=  901.79 GHz
     lambda(    8)=  0.0089   gamma=   31.43 GHz
     lambda(    9)=  0.0482   gamma=  171.26 GHz
     lambda(   10)=  0.0076   gamma=   29.87 GHz
     lambda(   11)=  0.0236   gamma=   93.22 GHz
     lambda(   12)=  0.1175   gamma=  474.57 GHz
     lambda(   13)=  0.0106   gamma=   44.18 GHz
     lambda(   14)=  0.0266   gamma=  117.46 GHz
     lambda(   15)=  0.0041   gamma=   18.99 GHz
     lambda(   16)=  0.0031   gamma=   14.58 GHz
     lambda(   17)=  0.0163   gamma=   79.91 GHz
     lambda(   18)=  0.0090   gamma=   50.76 GHz
     lambda(   19)=  0.0066   gamma=   37.29 GHz
     lambda(   20)=  0.0145   gamma=  101.73 GHz
     lambda(   21)=  0.0102   gamma=   82.07 GHz
 
 
     Number of q in the star =   12
     List of q in the star:
          1   0.324759526   0.324759526   0.000000000
          2   0.324759526  -0.324759526   0.000000000
          3  -0.324759526  -0.324759526   0.000000000
          4  -0.324759526   0.324759526   0.000000000
          5   0.324759526   0.000000000  -0.324759526
          6  -0.324759526  -0.000000000   0.324759526
          7   0.324759526  -0.000000000   0.324759526
          8   0.000000000  -0.324759526  -0.324759526
          9   0.000000000   0.324759526  -0.324759526
         10  -0.000000000   0.324759526   0.324759526
         11  -0.000000000  -0.324759526   0.324759526
         12  -0.324759526   0.000000000  -0.324759526
 
     init_run     :      0.06s CPU      0.13s WALL (       1 calls)
     electrons    :     12.97s CPU     14.32s WALL (       1 calls)

     Called by init_run:
     wfcinit      :      0.00s CPU      0.01s WALL (       1 calls)
     potinit      :      0.01s CPU      0.04s WALL (       1 calls)
     hinit0       :      0.03s CPU      0.04s WALL (       1 calls)

     Called by electrons:
     c_bands      :     12.96s CPU     14.27s WALL (       1 calls)
     v_of_rho     :      0.01s CPU      0.02s WALL (       2 calls)
     newd         :      0.01s CPU      0.03s WALL (       2 calls)

     Called by c_bands:
     init_us_2    :      1.68s CPU      1.87s WALL (   63510 calls)
     cegterg      :      8.77s CPU      9.43s WALL (     584 calls)

     Called by *egterg:
     cdiaghg      :      3.01s CPU      3.22s WALL (    8972 calls)
     h_psi        :    460.84s CPU    539.76s WALL (  659860 calls)
     s_psi        :     13.59s CPU     15.35s WALL ( 1359754 calls)
     g_psi        :      0.03s CPU      0.03s WALL (    8392 calls)

     Called by h_psi:
     h_psi:calbec :     12.25s CPU     13.74s WALL (  659860 calls)
     vloc_psi     :    436.50s CPU    512.43s WALL (  659860 calls)
     add_vuspsi   :      6.48s CPU      7.30s WALL (  659860 calls)

     General routines
     calbec       :     34.45s CPU     37.61s WALL ( 1443854 calls)
     fft          :      0.53s CPU      0.77s WALL (    3447 calls)
     ffts         :      0.38s CPU      0.42s WALL (    6917 calls)
     fftw         :    610.92s CPU    725.52s WALL ( 9323679 calls)
     interpolate  :      0.12s CPU      0.14s WALL (     365 calls)
     davcio       :      7.95s CPU    152.63s WALL (  270569 calls)
 
     Parallel routines
 
     PHONON       :  18m19.94s CPU  24m 9.71s WALL

     INITIALIZATION: 
     phq_setup    :      0.01s CPU      0.04s WALL (       1 calls)
     phq_init     :      7.45s CPU      8.29s WALL (       1 calls)
 
     phq_init     :      7.45s CPU      8.29s WALL (       1 calls)
     set_drhoc    :      0.04s CPU      0.04s WALL (       3 calls)
     init_vloc    :      0.00s CPU      0.03s WALL (       2 calls)
     init_us_1    :      0.05s CPU      0.43s WALL (       2 calls)
     newd         :      0.01s CPU      0.03s WALL (       2 calls)
     dvanqq       :      0.19s CPU      0.19s WALL (       1 calls)
     drho         :      5.02s CPU      5.64s WALL (       1 calls)
 
     DYNAMICAL MATRIX:
     dynmat0      :      1.23s CPU      1.34s WALL (       1 calls)
     phqscf       :   1047.63s CPU   1383.65s WALL (       1 calls)
     dynmatrix    :      0.03s CPU      0.05s WALL (       1 calls)
 
     phqscf       :   1047.63s CPU   1383.65s WALL (       1 calls)
     solve_linter :   1036.42s CPU   1368.12s WALL (      21 calls)
     drhodv       :     11.18s CPU     12.63s WALL (      21 calls)
 
     dynmat0      :      1.23s CPU      1.34s WALL (       1 calls)
     dynmat_us    :      1.19s CPU      1.29s WALL (       1 calls)
     d2ionq       :      0.01s CPU      0.01s WALL (       1 calls)
     dynmatcc     :      0.03s CPU      0.03s WALL (       1 calls)
 
     dynmat_us    :      1.19s CPU      1.29s WALL (       1 calls)
     addusdynmat  :      0.00s CPU      0.00s WALL (       1 calls)
 
     phqscf       :   1047.63s CPU   1383.65s WALL (       1 calls)
     solve_linter :   1036.42s CPU   1368.12s WALL (      21 calls)
 
     solve_linter :   1036.42s CPU   1368.12s WALL (      21 calls)
     dvqpsi_us    :      9.08s CPU      9.87s WALL (    6090 calls)
     ortho        :     13.75s CPU     14.56s WALL (   49590 calls)
     cgsolve      :    505.18s CPU    589.89s WALL (   49590 calls)
     incdrhoscf   :     73.70s CPU     89.59s WALL (   49590 calls)
     addusddens   :      2.95s CPU      3.67s WALL (     192 calls)
     vpsifft      :    127.84s CPU    154.13s WALL (   49590 calls)
     dv_of_drho   :      0.49s CPU      0.51s WALL (     171 calls)
     mix_pot      :      6.05s CPU     36.74s WALL (     171 calls)
     psymdvscf    :      4.21s CPU      4.37s WALL (     171 calls)
     newdq        :      2.33s CPU      2.35s WALL (     171 calls)
     adddvscf     :      1.64s CPU      1.85s WALL (   49590 calls)
     drhodvus     :      1.37s CPU      4.18s WALL (      21 calls)
 
     dvqpsi_us    :      9.08s CPU      9.87s WALL (    6090 calls)
     dvqpsi_us_on :      3.44s CPU      3.68s WALL (    6090 calls)
 
     cgsolve      :    505.18s CPU    589.89s WALL (   49590 calls)
     ch_psi       :    496.78s CPU    580.35s WALL (  650304 calls)
 
     ch_psi       :    496.78s CPU    580.35s WALL (  650304 calls)
     h_psi        :    460.84s CPU    539.76s WALL (  659860 calls)
     last         :     27.32s CPU     30.71s WALL (  650304 calls)
 
     h_psi        :    460.84s CPU    539.76s WALL (  659860 calls)
     add_vuspsi   :      6.48s CPU      7.30s WALL (  659860 calls)
 
     incdrhoscf   :     73.70s CPU     89.59s WALL (   49590 calls)
     addusdbec    :      1.61s CPU      1.79s WALL (   55680 calls)
 
     drhodvus     :      1.37s CPU      4.18s WALL (      21 calls)
 
      Electron-phonon coupling
     elphel       :     41.25s CPU     59.51s WALL (      21 calls)
     elphsum      :     31.02s CPU     33.42s WALL (       1 calls)
 
      General routines
     calbec       :     34.45s CPU     37.61s WALL ( 1443854 calls)
     fft          :      0.53s CPU      0.77s WALL (    3447 calls)
     ffts         :      0.38s CPU      0.42s WALL (    6917 calls)
     fftw         :    610.92s CPU    725.52s WALL ( 9323679 calls)
     davcio       :      7.95s CPU    152.63s WALL (  270569 calls)
     write_rec    :      0.17s CPU     18.37s WALL (     192 calls)
 
 
     PHONON       :  18m19.95s CPU  24m 9.71s WALL

 
   This run was terminated on:   0: 8:35  31Jul2022            

=------------------------------------------------------------------------------=
   JOB DONE.
=------------------------------------------------------------------------------=
