
     Program PHONON v.6.8 starts on 22Jul2022 at  0:11:21 

     This program is part of the open-source Quantum ESPRESSO suite
     for quantum simulation of materials; please cite
         "P. Giannozzi et al., J. Phys.:Condens. Matter 21 395502 (2009);
         "P. Giannozzi et al., J. Phys.:Condens. Matter 29 465901 (2017);
         "P. Giannozzi et al., J. Chem. Phys. 152 154105 (2020);
          URL http://www.quantum-espresso.org", 
     in publications or presentations arising from this work. More details at
     http://www.quantum-espresso.org/quote

     Parallel version (MPI), running on    48 processors

     MPI processes distributed on     1 nodes
     K-points division:     npool     =       4
     R & G space division:  proc/nbgrp/npool/nimage =      12
     188791 MiB available memory on the printing compute node when the environment starts
 
     Waiting for input...
     Reading input from standard input

     Reading xml data from directory:

     ./tmp/Ca1H6.save/

     IMPORTANT: XC functional enforced from input :
     Exchange-correlation= PBE
                           (   1   4   3   4   0   0   0)
     Any further DFT definition will be discarded
     Please, verify this is what you really want

 
     Parallelization info
     --------------------
     sticks:   dense  smooth     PW     G-vecs:    dense   smooth      PW
     Min         139      46     17                 3602      698     155
     Max         140      47     18                 3604      701     157
     Sum        1669     557    205                43227     8391    1865
 
     Using Slab Decomposition
 
     Reading collected, re-writing distributed wavefunctions

     Saving dvscf to file. Distribute only q points, not irreducible represetations.

     Calculation of q =   -0.4330127  -0.4330127   0.0000000

     Subspace diagonalization in iterative solution of the eigenvalue problem:
     a serial algorithm will be used

 
     Parallelization info
     --------------------
     sticks:   dense  smooth     PW     G-vecs:    dense   smooth      PW
     Min         139      46     19                 3602      698     186
     Max         140      47     20                 3604      701     189
     Sum        1669     557    229                43227     8391    2243
 
     Using Slab Decomposition
 

     Title: 
     Electron-phonon coefficients for Ca1H6                                     


     bravais-lattice index     =            0
     lattice parameter (alat)  =       5.5613  a.u.
     unit-cell volume          =     132.4087 (a.u.)^3
     number of atoms/cell      =            7
     number of atomic types    =            2
     number of electrons       =        16.00
     number of Kohn-Sham states=           12
     kinetic-energy cutoff     =      60.0000  Ry
     charge density cutoff     =     720.0000  Ry
     Exchange-correlation= PBE
                           (   1   4   3   4   0   0   0)

     celldm(1)=   5.561340  celldm(2)=   0.000000  celldm(3)=   0.000000
     celldm(4)=   0.000000  celldm(5)=   0.000000  celldm(6)=   0.000000

     crystal axes: (cart. coord. in units of alat)
               a(1) = (  -0.577350   0.577350   0.577350 )  
               a(2) = (   0.577350  -0.577350   0.577350 )  
               a(3) = (   0.577350   0.577350  -0.577350 )  

     reciprocal axes: (cart. coord. in units 2 pi/alat)
               b(1) = ( -0.000000  0.866025  0.866025 )  
               b(2) = (  0.866025 -0.000000  0.866025 )  
               b(3) = (  0.866025  0.866025  0.000000 )  


     PseudoPot. # 1 for Ca read from file:
     /work/home/mayuan/code/my_script/scripts_tests/out2/200.0/pp/ca_pbe_v1.uspp.F.UPF
     MD5 check sum: 403a4c14b9e4d4dfdc3024c9a3812218
     Pseudo is Ultrasoft + core correction, Zval = 10.0
     Generated by new atomic code, or converted to UPF format
     Using radial grid of  845 points,  6 beta functions with: 
                l(1) =   0
                l(2) =   0
                l(3) =   1
                l(4) =   1
                l(5) =   2
                l(6) =   2
     Q(r) pseudized with  8 coefficients,  rinner =    1.500   1.500   1.500
                                                       1.500   1.500

     PseudoPot. # 2 for H  read from file:
     /work/home/mayuan/code/my_script/scripts_tests/out2/200.0/pp/h_pbe_v1.uspp.F.UPF
     MD5 check sum: 3408e3ff4ec8b0a4e358431e7e038a48
     Pseudo is Ultrasoft, Zval =  1.0
     Generated by new atomic code, or converted to UPF format
     Using radial grid of  615 points,  2 beta functions with: 
                l(1) =   0
                l(2) =   0
     Q(r) pseudized with  8 coefficients,  rinner =    0.700

     atomic species   valence    mass     pseudopotential
        Ca            10.00    40.07800     Ca( 1.00)
        H              1.00     1.00794     H ( 1.00)

     48 Sym. Ops., with inversion, found



   Cartesian axes

     site n.     atom                  positions (alat units)
         1           Ca  tau(   1) = (   0.0000000   0.0000000   0.0000000  )
         2           H   tau(   2) = (   0.2886751   0.0000000   0.5773503  )
         3           H   tau(   3) = (   0.2886751   0.5773503   0.0000000  )
         4           H   tau(   4) = (   0.5773503   0.2886751   0.0000000  )
         5           H   tau(   5) = (   0.0000000   0.2886751   0.5773503  )
         6           H   tau(   6) = (   0.0000000   0.5773503   0.2886751  )
         7           H   tau(   7) = (   0.5773503   0.0000000   0.2886751  )

     number of k points=  1242  Methfessel-Paxton smearing, width (Ry)=  0.0200

     Number of k-points >= 100: set verbosity='high' to print them.

     Dense  grid:    43227 G-vectors     FFT dimensions: (  48,  48,  48)

     Smooth grid:     8391 G-vectors     FFT dimensions: (  27,  27,  27)

     Estimated max dynamical RAM per process >       8.37 MB

     Estimated total dynamical RAM >     401.79 MB

     The potential is recalculated from file :
     ./tmp/_ph0/Ca1H6.save/charge-density

     Starting wfcs are   16 atomic wfcs

     Band Structure Calculation
     Davidson diagonalization with overlap

     ethr =  6.25E-11,  avg # of iterations = 14.8

     total cpu time spent up to now is        9.4 secs

     End of band structure calculation

     Number of k-points >= 100: set verbosity='high' to print the bands.

     the Fermi energy is    17.0980 ev

     Writing output data file ./tmp/_ph0/Ca1H6.save/

     Electron-phonon coefficients for Ca1H6                                     

     bravais-lattice index     =            0
     lattice parameter (alat)  =       5.5613  a.u.
     unit-cell volume          =     132.4087 (a.u.)^3
     number of atoms/cell      =            7
     number of atomic types    =            2
     kinetic-energy cut-off    =      60.0000  Ry
     charge density cut-off    =     720.0000  Ry
     convergence threshold     =      1.0E-16
     beta                      =       0.7000
     number of iterations used =            4
     Exchange-correlation= PBE
                           (   1   4   3   4   0   0   0)


     celldm(1)=    5.56134  celldm(2)=    0.00000  celldm(3)=    0.00000
     celldm(4)=    0.00000  celldm(5)=    0.00000  celldm(6)=    0.00000

     crystal axes: (cart. coord. in units of alat)
               a(1) = ( -0.5774  0.5774  0.5774 )  
               a(2) = (  0.5774 -0.5774  0.5774 )  
               a(3) = (  0.5774  0.5774 -0.5774 )  

     reciprocal axes: (cart. coord. in units 2 pi/alat)
               b(1) = ( -0.0000  0.8660  0.8660 )  
               b(2) = (  0.8660 -0.0000  0.8660 )  
               b(3) = (  0.8660  0.8660  0.0000 )  


     Atoms inside the unit cell: 

     Cartesian axes

     site n.  atom      mass           positions (alat units)
        1     Ca  40.0780   tau(    1) = (    0.00000    0.00000    0.00000  )
        2     H    1.0079   tau(    2) = (    0.28868    0.00000    0.57735  )
        3     H    1.0079   tau(    3) = (    0.28868    0.57735    0.00000  )
        4     H    1.0079   tau(    4) = (    0.57735    0.28868    0.00000  )
        5     H    1.0079   tau(    5) = (    0.00000    0.28868    0.57735  )
        6     H    1.0079   tau(    6) = (    0.00000    0.57735    0.28868  )
        7     H    1.0079   tau(    7) = (    0.57735    0.00000    0.28868  )

     Computing dynamical matrix for 
                    q = (  -0.4330127  -0.4330127   0.0000000 )
 
      9 Sym.Ops. (with q -> -q+G )


     G cutoff =  564.0682  (   3604 G-vectors)     FFT grid: ( 48, 48, 48)
     G cutoff =  188.0227  (    699 G-vectors)  smooth grid: ( 27, 27, 27)

     number of k points=  1242  Methfessel-Paxton smearing, width (Ry)=  0.0200

     PseudoPot. # 1 for Ca read from file:
     /work/home/mayuan/code/my_script/scripts_tests/out2/200.0/pp/ca_pbe_v1.uspp.F.UPF
     MD5 check sum: 403a4c14b9e4d4dfdc3024c9a3812218
     Pseudo is Ultrasoft + core correction, Zval = 10.0
     Generated by new atomic code, or converted to UPF format
     Using radial grid of  845 points,  6 beta functions with: 
                l(1) =   0
                l(2) =   0
                l(3) =   1
                l(4) =   1
                l(5) =   2
                l(6) =   2
     Q(r) pseudized with  8 coefficients,  rinner =    1.500   1.500   1.500
                                                       1.500   1.500

     PseudoPot. # 2 for H  read from file:
     /work/home/mayuan/code/my_script/scripts_tests/out2/200.0/pp/h_pbe_v1.uspp.F.UPF
     MD5 check sum: 3408e3ff4ec8b0a4e358431e7e038a48
     Pseudo is Ultrasoft, Zval =  1.0
     Generated by new atomic code, or converted to UPF format
     Using radial grid of  615 points,  2 beta functions with: 
                l(1) =   0
                l(2) =   0
     Q(r) pseudized with  8 coefficients,  rinner =    0.700

     Mode symmetry, D_2h (mmm)  point group:


     Atomic displacements:
     There are   21 irreducible representations

     Representation     1      1 modes -  To be done

     Representation     2      1 modes -  To be done

     Representation     3      1 modes -  To be done

     Representation     4      1 modes -  To be done

     Representation     5      1 modes -  To be done

     Representation     6      1 modes -  To be done

     Representation     7      1 modes -  To be done

     Representation     8      1 modes -  To be done

     Representation     9      1 modes -  To be done

     Representation    10      1 modes -  To be done

     Representation    11      1 modes -  To be done

     Representation    12      1 modes -  To be done

     Representation    13      1 modes -  To be done

     Representation    14      1 modes -  To be done

     Representation    15      1 modes -  To be done

     Representation    16      1 modes -  To be done

     Representation    17      1 modes -  To be done

     Representation    18      1 modes -  To be done

     Representation    19      1 modes -  To be done

     Representation    20      1 modes -  To be done

     Representation    21      1 modes -  To be done



     Alpha used in Ewald sum =   2.8000
     PHONON       :     16.21s CPU     21.67s WALL



     Representation #   1 mode #   1

     Self-consistent Calculation

      iter #   1 total cpu time :    26.5 secs   av.it.:   4.1
      thresh= 1.000E-02 alpha_mix =  0.700 |ddv_scf|^2 =  5.539E-06

      iter #   2 total cpu time :    37.5 secs   av.it.:   8.9
      thresh= 2.354E-04 alpha_mix =  0.700 |ddv_scf|^2 =  1.277E-05

      iter #   3 total cpu time :    49.9 secs   av.it.:   8.1
      thresh= 3.573E-04 alpha_mix =  0.700 |ddv_scf|^2 =  1.762E-09

      iter #   4 total cpu time :    62.2 secs   av.it.:   9.3
      thresh= 4.198E-06 alpha_mix =  0.700 |ddv_scf|^2 =  1.765E-10

      iter #   5 total cpu time :    74.5 secs   av.it.:   9.2
      thresh= 1.328E-06 alpha_mix =  0.700 |ddv_scf|^2 =  3.253E-12

      iter #   6 total cpu time :    86.0 secs   av.it.:   8.4
      thresh= 1.804E-07 alpha_mix =  0.700 |ddv_scf|^2 =  4.192E-14

      iter #   7 total cpu time :   100.0 secs   av.it.:   8.4
      thresh= 2.048E-08 alpha_mix =  0.700 |ddv_scf|^2 =  3.805E-16

      iter #   8 total cpu time :   111.9 secs   av.it.:   8.7
      thresh= 1.951E-09 alpha_mix =  0.700 |ddv_scf|^2 =  2.892E-17

     End of self-consistent calculation

     Convergence has been achieved 


     Representation #   2 mode #   2

     Self-consistent Calculation

      iter #   1 total cpu time :   121.5 secs   av.it.:   3.9
      thresh= 1.000E-02 alpha_mix =  0.700 |ddv_scf|^2 =  2.545E-07

      iter #   2 total cpu time :   130.4 secs   av.it.:   9.2
      thresh= 5.045E-05 alpha_mix =  0.700 |ddv_scf|^2 =  1.827E-07

      iter #   3 total cpu time :   138.6 secs   av.it.:   8.7
      thresh= 4.275E-05 alpha_mix =  0.700 |ddv_scf|^2 =  2.637E-08

      iter #   4 total cpu time :   148.3 secs   av.it.:   8.1
      thresh= 1.624E-05 alpha_mix =  0.700 |ddv_scf|^2 =  2.758E-10

      iter #   5 total cpu time :   157.4 secs   av.it.:   9.1
      thresh= 1.661E-06 alpha_mix =  0.700 |ddv_scf|^2 =  1.193E-11

      iter #   6 total cpu time :   166.3 secs   av.it.:   8.7
      thresh= 3.454E-07 alpha_mix =  0.700 |ddv_scf|^2 =  9.846E-14

      iter #   7 total cpu time :   175.2 secs   av.it.:   8.7
      thresh= 3.138E-08 alpha_mix =  0.700 |ddv_scf|^2 =  2.729E-16

      iter #   8 total cpu time :   183.1 secs   av.it.:   8.8
      thresh= 1.652E-09 alpha_mix =  0.700 |ddv_scf|^2 =  9.680E-18

     End of self-consistent calculation

     Convergence has been achieved 


     Representation #   3 mode #   3

     Self-consistent Calculation

      iter #   1 total cpu time :   193.2 secs   av.it.:   4.1
      thresh= 1.000E-02 alpha_mix =  0.700 |ddv_scf|^2 =  4.969E-06

      iter #   2 total cpu time :   201.6 secs   av.it.:   8.9
      thresh= 2.229E-04 alpha_mix =  0.700 |ddv_scf|^2 =  1.135E-05

      iter #   3 total cpu time :   210.4 secs   av.it.:   8.1
      thresh= 3.370E-04 alpha_mix =  0.700 |ddv_scf|^2 =  1.532E-09

      iter #   4 total cpu time :   219.2 secs   av.it.:   8.8
      thresh= 3.914E-06 alpha_mix =  0.700 |ddv_scf|^2 =  3.899E-11

      iter #   5 total cpu time :   228.0 secs   av.it.:   9.2
      thresh= 6.245E-07 alpha_mix =  0.700 |ddv_scf|^2 =  3.796E-12

      iter #   6 total cpu time :   240.6 secs   av.it.:   9.1
      thresh= 1.948E-07 alpha_mix =  0.700 |ddv_scf|^2 =  1.855E-14

      iter #   7 total cpu time :   253.2 secs   av.it.:   9.0
      thresh= 1.362E-08 alpha_mix =  0.700 |ddv_scf|^2 =  3.099E-16

      iter #   8 total cpu time :   264.6 secs   av.it.:   8.6
      thresh= 1.760E-09 alpha_mix =  0.700 |ddv_scf|^2 =  6.934E-18

     End of self-consistent calculation

     Convergence has been achieved 


     Representation #   4 mode #   4

     Self-consistent Calculation

      iter #   1 total cpu time :   272.9 secs   av.it.:   3.1
      thresh= 1.000E-02 alpha_mix =  0.700 |ddv_scf|^2 =  8.838E-09

      iter #   2 total cpu time :   281.2 secs   av.it.:   8.9
      thresh= 9.401E-06 alpha_mix =  0.700 |ddv_scf|^2 =  4.860E-10

      iter #   3 total cpu time :   289.1 secs   av.it.:   8.5
      thresh= 2.205E-06 alpha_mix =  0.700 |ddv_scf|^2 =  8.173E-12

      iter #   4 total cpu time :   297.3 secs   av.it.:   8.2
      thresh= 2.859E-07 alpha_mix =  0.700 |ddv_scf|^2 =  5.058E-14

      iter #   5 total cpu time :   305.6 secs   av.it.:   8.6
      thresh= 2.249E-08 alpha_mix =  0.700 |ddv_scf|^2 =  1.200E-15

      iter #   6 total cpu time :   316.1 secs   av.it.:   8.9
      thresh= 3.464E-09 alpha_mix =  0.700 |ddv_scf|^2 =  5.960E-18

     End of self-consistent calculation

     Convergence has been achieved 


     Representation #   5 mode #   5

     Self-consistent Calculation

      iter #   1 total cpu time :   326.4 secs   av.it.:   3.6
      thresh= 1.000E-02 alpha_mix =  0.700 |ddv_scf|^2 =  3.913E-08

      iter #   2 total cpu time :   335.1 secs   av.it.:   8.7
      thresh= 1.978E-05 alpha_mix =  0.700 |ddv_scf|^2 =  5.830E-10

      iter #   3 total cpu time :   344.0 secs   av.it.:   8.6
      thresh= 2.415E-06 alpha_mix =  0.700 |ddv_scf|^2 =  3.442E-11

      iter #   4 total cpu time :   353.0 secs   av.it.:   8.6
      thresh= 5.867E-07 alpha_mix =  0.700 |ddv_scf|^2 =  2.296E-13

      iter #   5 total cpu time :   361.7 secs   av.it.:   8.5
      thresh= 4.791E-08 alpha_mix =  0.700 |ddv_scf|^2 =  1.911E-15

      iter #   6 total cpu time :   370.5 secs   av.it.:   9.0
      thresh= 4.372E-09 alpha_mix =  0.700 |ddv_scf|^2 =  1.098E-17

     End of self-consistent calculation

     Convergence has been achieved 


     Representation #   6 mode #   6

     Self-consistent Calculation

      iter #   1 total cpu time :   377.2 secs   av.it.:   3.0
      thresh= 1.000E-02 alpha_mix =  0.700 |ddv_scf|^2 =  1.035E-08

      iter #   2 total cpu time :   385.5 secs   av.it.:   8.7
      thresh= 1.018E-05 alpha_mix =  0.700 |ddv_scf|^2 =  3.639E-10

      iter #   3 total cpu time :   392.5 secs   av.it.:   7.3
      thresh= 1.908E-06 alpha_mix =  0.700 |ddv_scf|^2 =  2.102E-11

      iter #   4 total cpu time :   400.2 secs   av.it.:   7.4
      thresh= 4.585E-07 alpha_mix =  0.700 |ddv_scf|^2 =  2.020E-14

      iter #   5 total cpu time :   408.6 secs   av.it.:   8.7
      thresh= 1.421E-08 alpha_mix =  0.700 |ddv_scf|^2 =  6.015E-17

     End of self-consistent calculation

     Convergence has been achieved 


     Representation #   7 mode #   7

     Self-consistent Calculation

      iter #   1 total cpu time :   416.5 secs   av.it.:   3.1
      thresh= 1.000E-02 alpha_mix =  0.700 |ddv_scf|^2 =  6.266E-09

      iter #   2 total cpu time :   422.9 secs   av.it.:   8.6
      thresh= 7.916E-06 alpha_mix =  0.700 |ddv_scf|^2 =  5.019E-10

      iter #   3 total cpu time :   430.8 secs   av.it.:   8.2
      thresh= 2.240E-06 alpha_mix =  0.700 |ddv_scf|^2 =  1.434E-12

      iter #   4 total cpu time :   439.3 secs   av.it.:   8.6
      thresh= 1.197E-07 alpha_mix =  0.700 |ddv_scf|^2 =  6.037E-15

      iter #   5 total cpu time :   450.0 secs   av.it.:   8.3
      thresh= 7.770E-09 alpha_mix =  0.700 |ddv_scf|^2 =  1.723E-16

      iter #   6 total cpu time :   460.1 secs   av.it.:   8.5
      thresh= 1.313E-09 alpha_mix =  0.700 |ddv_scf|^2 =  3.261E-19

     End of self-consistent calculation

     Convergence has been achieved 


     Representation #   8 mode #   8

     Self-consistent Calculation

      iter #   1 total cpu time :   468.4 secs   av.it.:   3.4
      thresh= 1.000E-02 alpha_mix =  0.700 |ddv_scf|^2 =  1.182E-08

      iter #   2 total cpu time :   476.0 secs   av.it.:   8.7
      thresh= 1.087E-05 alpha_mix =  0.700 |ddv_scf|^2 =  7.416E-10

      iter #   3 total cpu time :   484.5 secs   av.it.:   8.6
      thresh= 2.723E-06 alpha_mix =  0.700 |ddv_scf|^2 =  4.491E-12

      iter #   4 total cpu time :   493.3 secs   av.it.:   8.1
      thresh= 2.119E-07 alpha_mix =  0.700 |ddv_scf|^2 =  3.955E-14

      iter #   5 total cpu time :   503.6 secs   av.it.:   8.5
      thresh= 1.989E-08 alpha_mix =  0.700 |ddv_scf|^2 =  2.545E-16

      iter #   6 total cpu time :   513.6 secs   av.it.:   8.9
      thresh= 1.595E-09 alpha_mix =  0.700 |ddv_scf|^2 =  5.146E-18

     End of self-consistent calculation

     Convergence has been achieved 


     Representation #   9 mode #   9

     Self-consistent Calculation

      iter #   1 total cpu time :   521.3 secs   av.it.:   3.8
      thresh= 1.000E-02 alpha_mix =  0.700 |ddv_scf|^2 =  1.985E-07

      iter #   2 total cpu time :   529.0 secs   av.it.:   8.6
      thresh= 4.455E-05 alpha_mix =  0.700 |ddv_scf|^2 =  1.071E-08

      iter #   3 total cpu time :   536.7 secs   av.it.:   8.7
      thresh= 1.035E-05 alpha_mix =  0.700 |ddv_scf|^2 =  1.065E-10

      iter #   4 total cpu time :   545.2 secs   av.it.:   8.5
      thresh= 1.032E-06 alpha_mix =  0.700 |ddv_scf|^2 =  4.676E-13

      iter #   5 total cpu time :   556.4 secs   av.it.:   8.5
      thresh= 6.838E-08 alpha_mix =  0.700 |ddv_scf|^2 =  3.241E-15

      iter #   6 total cpu time :   565.1 secs   av.it.:   9.0
      thresh= 5.693E-09 alpha_mix =  0.700 |ddv_scf|^2 =  4.753E-17

     End of self-consistent calculation

     Convergence has been achieved 


     Representation #  10 mode #  10

     Self-consistent Calculation

      iter #   1 total cpu time :   575.1 secs   av.it.:   3.2
      thresh= 1.000E-02 alpha_mix =  0.700 |ddv_scf|^2 =  1.046E-08

      iter #   2 total cpu time :   582.3 secs   av.it.:   8.6
      thresh= 1.023E-05 alpha_mix =  0.700 |ddv_scf|^2 =  6.293E-10

      iter #   3 total cpu time :   589.1 secs   av.it.:   8.5
      thresh= 2.509E-06 alpha_mix =  0.700 |ddv_scf|^2 =  4.729E-12

      iter #   4 total cpu time :   598.3 secs   av.it.:   8.3
      thresh= 2.175E-07 alpha_mix =  0.700 |ddv_scf|^2 =  6.017E-15

      iter #   5 total cpu time :   606.6 secs   av.it.:   8.0
      thresh= 7.757E-09 alpha_mix =  0.700 |ddv_scf|^2 =  9.726E-17

     End of self-consistent calculation

     Convergence has been achieved 


     Representation #  11 mode #  11

     Self-consistent Calculation

      iter #   1 total cpu time :   615.4 secs   av.it.:   3.5
      thresh= 1.000E-02 alpha_mix =  0.700 |ddv_scf|^2 =  1.573E-08

      iter #   2 total cpu time :   622.8 secs   av.it.:   8.7
      thresh= 1.254E-05 alpha_mix =  0.700 |ddv_scf|^2 =  8.429E-10

      iter #   3 total cpu time :   631.1 secs   av.it.:   8.7
      thresh= 2.903E-06 alpha_mix =  0.700 |ddv_scf|^2 =  6.240E-12

      iter #   4 total cpu time :   639.8 secs   av.it.:   8.0
      thresh= 2.498E-07 alpha_mix =  0.700 |ddv_scf|^2 =  7.573E-15

      iter #   5 total cpu time :   648.9 secs   av.it.:   8.1
      thresh= 8.702E-09 alpha_mix =  0.700 |ddv_scf|^2 =  1.474E-16

      iter #   6 total cpu time :   656.7 secs   av.it.:   8.2
      thresh= 1.214E-09 alpha_mix =  0.700 |ddv_scf|^2 =  7.279E-19

     End of self-consistent calculation

     Convergence has been achieved 


     Representation #  12 mode #  12

     Self-consistent Calculation

      iter #   1 total cpu time :   664.7 secs   av.it.:   3.8
      thresh= 1.000E-02 alpha_mix =  0.700 |ddv_scf|^2 =  1.220E-07

      iter #   2 total cpu time :   671.8 secs   av.it.:   9.1
      thresh= 3.492E-05 alpha_mix =  0.700 |ddv_scf|^2 =  1.051E-08

      iter #   3 total cpu time :   681.0 secs   av.it.:   9.1
      thresh= 1.025E-05 alpha_mix =  0.700 |ddv_scf|^2 =  2.969E-10

      iter #   4 total cpu time :   690.0 secs   av.it.:   9.1
      thresh= 1.723E-06 alpha_mix =  0.700 |ddv_scf|^2 =  5.918E-12

      iter #   5 total cpu time :   699.5 secs   av.it.:   8.6
      thresh= 2.433E-07 alpha_mix =  0.700 |ddv_scf|^2 =  9.748E-15

      iter #   6 total cpu time :   711.8 secs   av.it.:   8.9
      thresh= 9.873E-09 alpha_mix =  0.700 |ddv_scf|^2 =  5.867E-17

     End of self-consistent calculation

     Convergence has been achieved 


     Representation #  13 mode #  13

     Self-consistent Calculation

      iter #   1 total cpu time :   723.2 secs   av.it.:   6.3
      thresh= 1.000E-02 alpha_mix =  0.700 |ddv_scf|^2 =  1.381E-05

      iter #   2 total cpu time :   732.4 secs   av.it.:   9.3
      thresh= 3.716E-04 alpha_mix =  0.700 |ddv_scf|^2 =  2.110E-06

      iter #   3 total cpu time :   741.7 secs   av.it.:   9.1
      thresh= 1.453E-04 alpha_mix =  0.700 |ddv_scf|^2 =  3.037E-09

      iter #   4 total cpu time :   750.1 secs   av.it.:   8.9
      thresh= 5.511E-06 alpha_mix =  0.700 |ddv_scf|^2 =  1.725E-11

      iter #   5 total cpu time :   758.0 secs   av.it.:   9.2
      thresh= 4.153E-07 alpha_mix =  0.700 |ddv_scf|^2 =  1.497E-13

      iter #   6 total cpu time :   766.3 secs   av.it.:   8.6
      thresh= 3.869E-08 alpha_mix =  0.700 |ddv_scf|^2 =  1.402E-15

      iter #   7 total cpu time :   775.3 secs   av.it.:   8.9
      thresh= 3.745E-09 alpha_mix =  0.700 |ddv_scf|^2 =  2.718E-17

     End of self-consistent calculation

     Convergence has been achieved 


     Representation #  14 mode #  14

     Self-consistent Calculation

      iter #   1 total cpu time :   783.7 secs   av.it.:   4.0
      thresh= 1.000E-02 alpha_mix =  0.700 |ddv_scf|^2 =  2.345E-07

      iter #   2 total cpu time :   791.9 secs   av.it.:   9.1
      thresh= 4.842E-05 alpha_mix =  0.700 |ddv_scf|^2 =  2.134E-08

      iter #   3 total cpu time :   800.0 secs   av.it.:   9.1
      thresh= 1.461E-05 alpha_mix =  0.700 |ddv_scf|^2 =  4.320E-10

      iter #   4 total cpu time :   808.2 secs   av.it.:   9.0
      thresh= 2.078E-06 alpha_mix =  0.700 |ddv_scf|^2 =  6.570E-12

      iter #   5 total cpu time :   815.8 secs   av.it.:   8.6
      thresh= 2.563E-07 alpha_mix =  0.700 |ddv_scf|^2 =  8.680E-15

      iter #   6 total cpu time :   824.8 secs   av.it.:   8.8
      thresh= 9.317E-09 alpha_mix =  0.700 |ddv_scf|^2 =  9.778E-17

     End of self-consistent calculation

     Convergence has been achieved 


     Representation #  15 mode #  15

     Self-consistent Calculation

      iter #   1 total cpu time :   834.3 secs   av.it.:   3.7
      thresh= 1.000E-02 alpha_mix =  0.700 |ddv_scf|^2 =  1.235E-07

      iter #   2 total cpu time :   844.7 secs   av.it.:   9.1
      thresh= 3.514E-05 alpha_mix =  0.700 |ddv_scf|^2 =  1.511E-08

      iter #   3 total cpu time :   853.4 secs   av.it.:   9.1
      thresh= 1.229E-05 alpha_mix =  0.700 |ddv_scf|^2 =  2.093E-10

      iter #   4 total cpu time :   862.0 secs   av.it.:   8.9
      thresh= 1.447E-06 alpha_mix =  0.700 |ddv_scf|^2 =  4.501E-12

      iter #   5 total cpu time :   869.8 secs   av.it.:   9.0
      thresh= 2.122E-07 alpha_mix =  0.700 |ddv_scf|^2 =  1.382E-13

      iter #   6 total cpu time :   878.9 secs   av.it.:   9.0
      thresh= 3.717E-08 alpha_mix =  0.700 |ddv_scf|^2 =  4.244E-16

      iter #   7 total cpu time :   886.1 secs   av.it.:   8.4
      thresh= 2.060E-09 alpha_mix =  0.700 |ddv_scf|^2 =  3.915E-17

     End of self-consistent calculation

     Convergence has been achieved 


     Representation #  16 mode #  16

     Self-consistent Calculation

      iter #   1 total cpu time :   895.4 secs   av.it.:   3.8
      thresh= 1.000E-02 alpha_mix =  0.700 |ddv_scf|^2 =  2.628E-07

      iter #   2 total cpu time :   904.8 secs   av.it.:   9.0
      thresh= 5.127E-05 alpha_mix =  0.700 |ddv_scf|^2 =  3.339E-08

      iter #   3 total cpu time :   913.6 secs   av.it.:   9.1
      thresh= 1.827E-05 alpha_mix =  0.700 |ddv_scf|^2 =  2.671E-10

      iter #   4 total cpu time :   920.8 secs   av.it.:   9.0
      thresh= 1.634E-06 alpha_mix =  0.700 |ddv_scf|^2 =  9.349E-12

      iter #   5 total cpu time :   928.5 secs   av.it.:   9.0
      thresh= 3.058E-07 alpha_mix =  0.700 |ddv_scf|^2 =  2.415E-13

      iter #   6 total cpu time :   935.4 secs   av.it.:   8.9
      thresh= 4.915E-08 alpha_mix =  0.700 |ddv_scf|^2 =  4.896E-16

      iter #   7 total cpu time :   944.4 secs   av.it.:   8.7
      thresh= 2.213E-09 alpha_mix =  0.700 |ddv_scf|^2 =  5.126E-17

     End of self-consistent calculation

     Convergence has been achieved 


     Representation #  17 mode #  17

     Self-consistent Calculation

      iter #   1 total cpu time :   953.4 secs   av.it.:   6.4
      thresh= 1.000E-02 alpha_mix =  0.700 |ddv_scf|^2 =  1.023E-05

      iter #   2 total cpu time :   962.0 secs   av.it.:   9.4
      thresh= 3.198E-04 alpha_mix =  0.700 |ddv_scf|^2 =  1.514E-06

      iter #   3 total cpu time :   970.3 secs   av.it.:   9.2
      thresh= 1.231E-04 alpha_mix =  0.700 |ddv_scf|^2 =  5.748E-09

      iter #   4 total cpu time :   978.5 secs   av.it.:   9.2
      thresh= 7.582E-06 alpha_mix =  0.700 |ddv_scf|^2 =  2.898E-10

      iter #   5 total cpu time :   986.5 secs   av.it.:   9.0
      thresh= 1.702E-06 alpha_mix =  0.700 |ddv_scf|^2 =  1.622E-12

      iter #   6 total cpu time :   994.4 secs   av.it.:   8.8
      thresh= 1.274E-07 alpha_mix =  0.700 |ddv_scf|^2 =  1.471E-14

      iter #   7 total cpu time :  1002.5 secs   av.it.:   8.7
      thresh= 1.213E-08 alpha_mix =  0.700 |ddv_scf|^2 =  6.126E-16

      iter #   8 total cpu time :  1011.6 secs   av.it.:   8.9
      thresh= 2.475E-09 alpha_mix =  0.700 |ddv_scf|^2 =  3.938E-18

     End of self-consistent calculation

     Convergence has been achieved 


     Representation #  18 mode #  18

     Self-consistent Calculation

      iter #   1 total cpu time :  1019.3 secs   av.it.:   3.6
      thresh= 1.000E-02 alpha_mix =  0.700 |ddv_scf|^2 =  2.896E-08

      iter #   2 total cpu time :  1025.9 secs   av.it.:   8.9
      thresh= 1.702E-05 alpha_mix =  0.700 |ddv_scf|^2 =  1.762E-09

      iter #   3 total cpu time :  1034.0 secs   av.it.:   8.9
      thresh= 4.197E-06 alpha_mix =  0.700 |ddv_scf|^2 =  1.894E-10

      iter #   4 total cpu time :  1043.0 secs   av.it.:   8.9
      thresh= 1.376E-06 alpha_mix =  0.700 |ddv_scf|^2 =  3.008E-12

      iter #   5 total cpu time :  1051.4 secs   av.it.:   9.2
      thresh= 1.734E-07 alpha_mix =  0.700 |ddv_scf|^2 =  2.151E-13

      iter #   6 total cpu time :  1060.0 secs   av.it.:   9.1
      thresh= 4.638E-08 alpha_mix =  0.700 |ddv_scf|^2 =  1.355E-15

      iter #   7 total cpu time :  1068.2 secs   av.it.:   8.6
      thresh= 3.681E-09 alpha_mix =  0.700 |ddv_scf|^2 =  8.677E-17

     End of self-consistent calculation

     Convergence has been achieved 


     Representation #  19 mode #  19

     Self-consistent Calculation

      iter #   1 total cpu time :  1078.1 secs   av.it.:   6.8
      thresh= 1.000E-02 alpha_mix =  0.700 |ddv_scf|^2 =  3.082E-04

      iter #   2 total cpu time :  1086.9 secs   av.it.:   8.9
      thresh= 1.756E-03 alpha_mix =  0.700 |ddv_scf|^2 =  9.831E-04

      iter #   3 total cpu time :  1094.3 secs   av.it.:   7.9
      thresh= 3.135E-03 alpha_mix =  0.700 |ddv_scf|^2 =  2.163E-08

      iter #   4 total cpu time :  1102.7 secs   av.it.:   9.7
      thresh= 1.471E-05 alpha_mix =  0.700 |ddv_scf|^2 =  4.641E-09

      iter #   5 total cpu time :  1111.5 secs   av.it.:   8.4
      thresh= 6.812E-06 alpha_mix =  0.700 |ddv_scf|^2 =  4.566E-11

      iter #   6 total cpu time :  1117.3 secs   av.it.:   8.9
      thresh= 6.758E-07 alpha_mix =  0.700 |ddv_scf|^2 =  7.289E-13

      iter #   7 total cpu time :  1125.3 secs   av.it.:   8.5
      thresh= 8.537E-08 alpha_mix =  0.700 |ddv_scf|^2 =  1.331E-15

      iter #   8 total cpu time :  1133.4 secs   av.it.:   9.1
      thresh= 3.648E-09 alpha_mix =  0.700 |ddv_scf|^2 =  5.931E-17

     End of self-consistent calculation

     Convergence has been achieved 


     Representation #  20 mode #  20

     Self-consistent Calculation

      iter #   1 total cpu time :  1142.5 secs   av.it.:   3.9
      thresh= 1.000E-02 alpha_mix =  0.700 |ddv_scf|^2 =  1.242E-06

      iter #   2 total cpu time :  1150.9 secs   av.it.:   8.9
      thresh= 1.114E-04 alpha_mix =  0.700 |ddv_scf|^2 =  3.880E-06

      iter #   3 total cpu time :  1159.2 secs   av.it.:   7.9
      thresh= 1.970E-04 alpha_mix =  0.700 |ddv_scf|^2 =  4.152E-10

      iter #   4 total cpu time :  1166.1 secs   av.it.:   9.3
      thresh= 2.038E-06 alpha_mix =  0.700 |ddv_scf|^2 =  2.856E-11

      iter #   5 total cpu time :  1175.8 secs   av.it.:   9.2
      thresh= 5.344E-07 alpha_mix =  0.700 |ddv_scf|^2 =  2.189E-12

      iter #   6 total cpu time :  1187.2 secs   av.it.:   8.6
      thresh= 1.480E-07 alpha_mix =  0.700 |ddv_scf|^2 =  1.987E-14

      iter #   7 total cpu time :  1196.4 secs   av.it.:   8.7
      thresh= 1.410E-08 alpha_mix =  0.700 |ddv_scf|^2 =  2.326E-16

      iter #   8 total cpu time :  1205.8 secs   av.it.:   8.8
      thresh= 1.525E-09 alpha_mix =  0.700 |ddv_scf|^2 =  2.304E-17

     End of self-consistent calculation

     Convergence has been achieved 


     Representation #  21 mode #  21

     Self-consistent Calculation

      iter #   1 total cpu time :  1215.6 secs   av.it.:   4.3
      thresh= 1.000E-02 alpha_mix =  0.700 |ddv_scf|^2 =  4.784E-06

      iter #   2 total cpu time :  1223.3 secs   av.it.:   8.8
      thresh= 2.187E-04 alpha_mix =  0.700 |ddv_scf|^2 =  1.498E-05

      iter #   3 total cpu time :  1231.5 secs   av.it.:   7.9
      thresh= 3.870E-04 alpha_mix =  0.700 |ddv_scf|^2 =  1.172E-09

      iter #   4 total cpu time :  1240.3 secs   av.it.:   8.5
      thresh= 3.423E-06 alpha_mix =  0.700 |ddv_scf|^2 =  1.921E-11

      iter #   5 total cpu time :  1248.5 secs   av.it.:   8.4
      thresh= 4.383E-07 alpha_mix =  0.700 |ddv_scf|^2 =  4.606E-13

      iter #   6 total cpu time :  1257.9 secs   av.it.:   8.6
      thresh= 6.787E-08 alpha_mix =  0.700 |ddv_scf|^2 =  3.719E-15

      iter #   7 total cpu time :  1267.1 secs   av.it.:   9.2
      thresh= 6.098E-09 alpha_mix =  0.700 |ddv_scf|^2 =  1.061E-16

      iter #   8 total cpu time :  1275.6 secs   av.it.:   8.4
      thresh= 1.030E-09 alpha_mix =  0.700 |ddv_scf|^2 =  7.581E-18

     End of self-consistent calculation

     Convergence has been achieved 
 
     Number of q in the star =    6
     List of q in the star:
          1  -0.433012700  -0.433012700   0.000000000
          2   0.000000000   0.433012700  -0.433012700
          3  -0.000000000   0.433012700   0.433012700
          4   0.433012700   0.000000000  -0.433012700
          5   0.433012700  -0.000000000   0.433012700
          6   0.433012700  -0.433012700   0.000000000

     Diagonalizing the dynamical matrix

     q = (   -0.433012700  -0.433012700   0.000000000 ) 

 **************************************************************************
     freq (    1) =       8.493925 [THz] =     283.326833 [cm-1]
     freq (    2) =      10.295005 [THz] =     343.404403 [cm-1]
     freq (    3) =      13.552390 [THz] =     452.059067 [cm-1]
     freq (    4) =      26.154821 [THz] =     872.430922 [cm-1]
     freq (    5) =      30.228695 [THz] =    1008.320733 [cm-1]
     freq (    6) =      30.575124 [THz] =    1019.876353 [cm-1]
     freq (    7) =      35.018838 [THz] =    1168.102714 [cm-1]
     freq (    8) =      38.589344 [THz] =    1287.201960 [cm-1]
     freq (    9) =      38.925465 [THz] =    1298.413767 [cm-1]
     freq (   10) =      39.528826 [THz] =    1318.539707 [cm-1]
     freq (   11) =      39.670383 [THz] =    1323.261525 [cm-1]
     freq (   12) =      40.367246 [THz] =    1346.506402 [cm-1]
     freq (   13) =      40.764638 [THz] =    1359.761969 [cm-1]
     freq (   14) =      42.037286 [THz] =    1402.212926 [cm-1]
     freq (   15) =      44.335700 [THz] =    1478.879778 [cm-1]
     freq (   16) =      45.430154 [THz] =    1515.386805 [cm-1]
     freq (   17) =      46.906952 [THz] =    1564.647501 [cm-1]
     freq (   18) =      47.795614 [THz] =    1594.290063 [cm-1]
     freq (   19) =      49.219983 [THz] =    1641.801916 [cm-1]
     freq (   20) =      51.008240 [THz] =    1701.451757 [cm-1]
     freq (   21) =      57.664847 [THz] =    1923.492261 [cm-1]
 **************************************************************************

     Mode symmetry, D_2h (mmm)  point group:

     freq (   1-   1) =        283.3  [cm-1]   --> B_1u               
     freq (   2-   2) =        343.4  [cm-1]   --> B_2u               
     freq (   3-   3) =        452.1  [cm-1]   --> B_3u               
     freq (   4-   4) =        872.4  [cm-1]   --> A_g                
     freq (   5-   5) =       1008.3  [cm-1]   --> B_2g               
     freq (   6-   6) =       1019.9  [cm-1]   --> A_u                
     freq (   7-   7) =       1168.1  [cm-1]   --> B_2u               
     freq (   8-   8) =       1287.2  [cm-1]   --> B_3u               
     freq (   9-   9) =       1298.4  [cm-1]   --> A_g                
     freq (  10-  10) =       1318.5  [cm-1]   --> B_1u               
     freq (  11-  11) =       1323.3  [cm-1]   --> B_1g               
     freq (  12-  12) =       1346.5  [cm-1]   --> B_2u               
     freq (  13-  13) =       1359.8  [cm-1]   --> B_2g               
     freq (  14-  14) =       1402.2  [cm-1]   --> B_1u               
     freq (  15-  15) =       1478.9  [cm-1]   --> A_u                
     freq (  16-  16) =       1515.4  [cm-1]   --> B_1g               
     freq (  17-  17) =       1564.6  [cm-1]   --> B_1g               
     freq (  18-  18) =       1594.3  [cm-1]   --> B_3u               
     freq (  19-  19) =       1641.8  [cm-1]   --> B_3g               
     freq (  20-  20) =       1701.5  [cm-1]   --> A_g                
     freq (  21-  21) =       1923.5  [cm-1]   --> B_2u               
     electron-phonon interaction  ...

     Gaussian Broadening:   0.005 Ry, ngauss=   0
     DOS =  1.900675 states/spin/Ry/Unit Cell at Ef= 17.155196 eV
     lambda(    1)=  0.0352   gamma=    4.60 GHz
     lambda(    2)=  0.0670   gamma=   12.89 GHz
     lambda(    3)=  0.0480   gamma=   16.00 GHz
     lambda(    4)=  1.6720   gamma= 2076.04 GHz
     lambda(    5)=  0.0181   gamma=   30.04 GHz
     lambda(    6)=  0.9053   gamma= 1536.04 GHz
     lambda(    7)=  0.1791   gamma=  398.67 GHz
     lambda(    8)=  0.3654   gamma=  987.60 GHz
     lambda(    9)=  0.4998   gamma= 1374.53 GHz
     lambda(   10)=  0.2128   gamma=  603.57 GHz
     lambda(   11)=  0.0170   gamma=   48.49 GHz
     lambda(   12)=  0.0212   gamma=   62.59 GHz
     lambda(   13)=  0.0139   gamma=   42.02 GHz
     lambda(   14)=  0.0112   gamma=   35.80 GHz
     lambda(   15)=  0.0063   gamma=   22.56 GHz
     lambda(   16)=  0.0090   gamma=   33.90 GHz
     lambda(   17)=  0.0227   gamma=   90.55 GHz
     lambda(   18)=  0.0264   gamma=  109.56 GHz
     lambda(   19)=  0.0238   gamma=  104.65 GHz
     lambda(   20)=  0.0776   gamma=  366.35 GHz
     lambda(   21)=  0.0026   gamma=   15.54 GHz
     Gaussian Broadening:   0.010 Ry, ngauss=   0
     DOS =  2.130656 states/spin/Ry/Unit Cell at Ef= 17.149400 eV
     lambda(    1)=  0.0655   gamma=    9.62 GHz
     lambda(    2)=  0.0282   gamma=    6.07 GHz
     lambda(    3)=  0.0377   gamma=   14.10 GHz
     lambda(    4)=  0.9528   gamma= 1326.11 GHz
     lambda(    5)=  0.0521   gamma=   96.87 GHz
     lambda(    6)=  0.4501   gamma=  856.17 GHz
     lambda(    7)=  0.1318   gamma=  328.81 GHz
     lambda(    8)=  0.1798   gamma=  544.67 GHz
     lambda(    9)=  0.2643   gamma=  814.69 GHz
     lambda(   10)=  0.0966   gamma=  306.98 GHz
     lambda(   11)=  0.0169   gamma=   53.96 GHz
     lambda(   12)=  0.0091   gamma=   30.33 GHz
     lambda(   13)=  0.0052   gamma=   17.74 GHz
     lambda(   14)=  0.0175   gamma=   62.92 GHz
     lambda(   15)=  0.0057   gamma=   22.93 GHz
     lambda(   16)=  0.0075   gamma=   31.58 GHz
     lambda(   17)=  0.0116   gamma=   51.95 GHz
     lambda(   18)=  0.0127   gamma=   59.01 GHz
     lambda(   19)=  0.0090   gamma=   44.14 GHz
     lambda(   20)=  0.0319   gamma=  168.95 GHz
     lambda(   21)=  0.0038   gamma=   25.62 GHz
     Gaussian Broadening:   0.015 Ry, ngauss=   0
     DOS =  2.235086 states/spin/Ry/Unit Cell at Ef= 17.146382 eV
     lambda(    1)=  0.0841   gamma=   12.94 GHz
     lambda(    2)=  0.0264   gamma=    5.98 GHz
     lambda(    3)=  0.0466   gamma=   18.27 GHz
     lambda(    4)=  0.9105   gamma= 1329.43 GHz
     lambda(    5)=  0.0669   gamma=  130.42 GHz
     lambda(    6)=  0.4291   gamma=  856.26 GHz
     lambda(    7)=  0.1445   gamma=  378.13 GHz
     lambda(    8)=  0.1635   gamma=  519.53 GHz
     lambda(    9)=  0.2640   gamma=  853.72 GHz
     lambda(   10)=  0.0928   gamma=  309.39 GHz
     lambda(   11)=  0.0189   gamma=   63.53 GHz
     lambda(   12)=  0.0093   gamma=   32.25 GHz
     lambda(   13)=  0.0040   gamma=   14.01 GHz
     lambda(   14)=  0.0223   gamma=   83.92 GHz
     lambda(   15)=  0.0061   gamma=   25.79 GHz
     lambda(   16)=  0.0085   gamma=   37.31 GHz
     lambda(   17)=  0.0115   gamma=   54.18 GHz
     lambda(   18)=  0.0106   gamma=   51.64 GHz
     lambda(   19)=  0.0079   gamma=   40.80 GHz
     lambda(   20)=  0.0280   gamma=  155.46 GHz
     lambda(   21)=  0.0050   gamma=   35.31 GHz
     Gaussian Broadening:   0.020 Ry, ngauss=   0
     DOS =  2.290454 states/spin/Ry/Unit Cell at Ef= 17.145317 eV
     lambda(    1)=  0.0885   gamma=   13.96 GHz
     lambda(    2)=  0.0275   gamma=    6.37 GHz
     lambda(    3)=  0.0511   gamma=   20.51 GHz
     lambda(    4)=  0.9201   gamma= 1376.75 GHz
     lambda(    5)=  0.0676   gamma=  135.18 GHz
     lambda(    6)=  0.4256   gamma=  870.31 GHz
     lambda(    7)=  0.1554   gamma=  416.88 GHz
     lambda(    8)=  0.1687   gamma=  549.47 GHz
     lambda(    9)=  0.2592   gamma=  859.11 GHz
     lambda(   10)=  0.0902   gamma=  308.18 GHz
     lambda(   11)=  0.0197   gamma=   67.89 GHz
     lambda(   12)=  0.0109   gamma=   38.74 GHz
     lambda(   13)=  0.0034   gamma=   12.24 GHz
     lambda(   14)=  0.0231   gamma=   89.39 GHz
     lambda(   15)=  0.0059   gamma=   25.49 GHz
     lambda(   16)=  0.0089   gamma=   40.10 GHz
     lambda(   17)=  0.0123   gamma=   59.01 GHz
     lambda(   18)=  0.0100   gamma=   50.19 GHz
     lambda(   19)=  0.0075   gamma=   39.60 GHz
     lambda(   20)=  0.0266   gamma=  151.59 GHz
     lambda(   21)=  0.0059   gamma=   42.59 GHz
     Gaussian Broadening:   0.025 Ry, ngauss=   0
     DOS =  2.332190 states/spin/Ry/Unit Cell at Ef= 17.144758 eV
     lambda(    1)=  0.0886   gamma=   14.23 GHz
     lambda(    2)=  0.0285   gamma=    6.73 GHz
     lambda(    3)=  0.0522   gamma=   21.34 GHz
     lambda(    4)=  0.9445   gamma= 1438.92 GHz
     lambda(    5)=  0.0673   gamma=  136.86 GHz
     lambda(    6)=  0.4218   gamma=  878.08 GHz
     lambda(    7)=  0.1636   gamma=  446.87 GHz
     lambda(    8)=  0.1749   gamma=  579.92 GHz
     lambda(    9)=  0.2540   gamma=  857.06 GHz
     lambda(   10)=  0.0884   gamma=  307.79 GHz
     lambda(   11)=  0.0200   gamma=   70.01 GHz
     lambda(   12)=  0.0126   gamma=   45.86 GHz
     lambda(   13)=  0.0031   gamma=   11.52 GHz
     lambda(   14)=  0.0234   gamma=   92.17 GHz
     lambda(   15)=  0.0058   gamma=   25.32 GHz
     lambda(   16)=  0.0089   gamma=   40.91 GHz
     lambda(   17)=  0.0128   gamma=   62.65 GHz
     lambda(   18)=  0.0099   gamma=   50.15 GHz
     lambda(   19)=  0.0073   gamma=   39.25 GHz
     lambda(   20)=  0.0266   gamma=  154.12 GHz
     lambda(   21)=  0.0068   gamma=   50.35 GHz
     Gaussian Broadening:   0.030 Ry, ngauss=   0
     DOS =  2.360595 states/spin/Ry/Unit Cell at Ef= 17.144134 eV
     lambda(    1)=  0.0874   gamma=   14.22 GHz
     lambda(    2)=  0.0292   gamma=    6.98 GHz
     lambda(    3)=  0.0518   gamma=   21.46 GHz
     lambda(    4)=  0.9649   gamma= 1488.00 GHz
     lambda(    5)=  0.0676   gamma=  139.24 GHz
     lambda(    6)=  0.4173   gamma=  879.33 GHz
     lambda(    7)=  0.1700   gamma=  470.00 GHz
     lambda(    8)=  0.1787   gamma=  599.99 GHz
     lambda(    9)=  0.2492   gamma=  851.13 GHz
     lambda(   10)=  0.0873   gamma=  307.59 GHz
     lambda(   11)=  0.0201   gamma=   71.20 GHz
     lambda(   12)=  0.0143   gamma=   52.54 GHz
     lambda(   13)=  0.0030   gamma=   11.38 GHz
     lambda(   14)=  0.0236   gamma=   93.96 GHz
     lambda(   15)=  0.0058   gamma=   25.59 GHz
     lambda(   16)=  0.0088   gamma=   40.81 GHz
     lambda(   17)=  0.0132   gamma=   65.41 GHz
     lambda(   18)=  0.0098   gamma=   50.48 GHz
     lambda(   19)=  0.0072   gamma=   39.34 GHz
     lambda(   20)=  0.0270   gamma=  158.25 GHz
     lambda(   21)=  0.0077   gamma=   58.08 GHz
     Gaussian Broadening:   0.035 Ry, ngauss=   0
     DOS =  2.381114 states/spin/Ry/Unit Cell at Ef= 17.143351 eV
     lambda(    1)=  0.0861   gamma=   14.12 GHz
     lambda(    2)=  0.0297   gamma=    7.16 GHz
     lambda(    3)=  0.0510   gamma=   21.30 GHz
     lambda(    4)=  0.9751   gamma= 1516.66 GHz
     lambda(    5)=  0.0686   gamma=  142.62 GHz
     lambda(    6)=  0.4120   gamma=  875.67 GHz
     lambda(    7)=  0.1749   gamma=  487.71 GHz
     lambda(    8)=  0.1805   gamma=  611.02 GHz
     lambda(    9)=  0.2448   gamma=  843.26 GHz
     lambda(   10)=  0.0865   gamma=  307.17 GHz
     lambda(   11)=  0.0202   gamma=   72.15 GHz
     lambda(   12)=  0.0158   gamma=   58.44 GHz
     lambda(   13)=  0.0031   gamma=   11.60 GHz
     lambda(   14)=  0.0237   gamma=   95.10 GHz
     lambda(   15)=  0.0059   gamma=   26.19 GHz
     lambda(   16)=  0.0086   gamma=   40.45 GHz
     lambda(   17)=  0.0136   gamma=   67.98 GHz
     lambda(   18)=  0.0098   gamma=   50.97 GHz
     lambda(   19)=  0.0072   gamma=   39.60 GHz
     lambda(   20)=  0.0274   gamma=  162.19 GHz
     lambda(   21)=  0.0086   gamma=   65.02 GHz
     Gaussian Broadening:   0.040 Ry, ngauss=   0
     DOS =  2.398900 states/spin/Ry/Unit Cell at Ef= 17.142416 eV
     lambda(    1)=  0.0847   gamma=   14.00 GHz
     lambda(    2)=  0.0300   gamma=    7.29 GHz
     lambda(    3)=  0.0500   gamma=   21.06 GHz
     lambda(    4)=  0.9751   gamma= 1528.10 GHz
     lambda(    5)=  0.0703   gamma=  147.07 GHz
     lambda(    6)=  0.4058   gamma=  869.02 GHz
     lambda(    7)=  0.1784   gamma=  501.10 GHz
     lambda(    8)=  0.1805   gamma=  615.68 GHz
     lambda(    9)=  0.2404   gamma=  834.38 GHz
     lambda(   10)=  0.0856   gamma=  306.57 GHz
     lambda(   11)=  0.0203   gamma=   73.09 GHz
     lambda(   12)=  0.0170   gamma=   63.52 GHz
     lambda(   13)=  0.0032   gamma=   12.03 GHz
     lambda(   14)=  0.0237   gamma=   96.08 GHz
     lambda(   15)=  0.0060   gamma=   26.97 GHz
     lambda(   16)=  0.0085   gamma=   40.06 GHz
     lambda(   17)=  0.0140   gamma=   70.67 GHz
     lambda(   18)=  0.0099   gamma=   51.66 GHz
     lambda(   19)=  0.0072   gamma=   39.88 GHz
     lambda(   20)=  0.0278   gamma=  165.51 GHz
     lambda(   21)=  0.0093   gamma=   70.96 GHz
     Gaussian Broadening:   0.045 Ry, ngauss=   0
     DOS =  2.416850 states/spin/Ry/Unit Cell at Ef= 17.141341 eV
     lambda(    1)=  0.0835   gamma=   13.90 GHz
     lambda(    2)=  0.0302   gamma=    7.39 GHz
     lambda(    3)=  0.0490   gamma=   20.78 GHz
     lambda(    4)=  0.9675   gamma= 1527.46 GHz
     lambda(    5)=  0.0723   gamma=  152.58 GHz
     lambda(    6)=  0.3990   gamma=  860.95 GHz
     lambda(    7)=  0.1806   gamma=  511.26 GHz
     lambda(    8)=  0.1792   gamma=  616.02 GHz
     lambda(    9)=  0.2358   gamma=  824.57 GHz
     lambda(   10)=  0.0848   gamma=  305.76 GHz
     lambda(   11)=  0.0204   gamma=   74.14 GHz
     lambda(   12)=  0.0181   gamma=   67.92 GHz
     lambda(   13)=  0.0033   gamma=   12.59 GHz
     lambda(   14)=  0.0238   gamma=   97.22 GHz
     lambda(   15)=  0.0061   gamma=   27.87 GHz
     lambda(   16)=  0.0083   gamma=   39.75 GHz
     lambda(   17)=  0.0145   gamma=   73.66 GHz
     lambda(   18)=  0.0100   gamma=   52.75 GHz
     lambda(   19)=  0.0072   gamma=   40.15 GHz
     lambda(   20)=  0.0280   gamma=  168.22 GHz
     lambda(   21)=  0.0099   gamma=   76.00 GHz
     Gaussian Broadening:   0.050 Ry, ngauss=   0
     DOS =  2.436152 states/spin/Ry/Unit Cell at Ef= 17.140123 eV
     lambda(    1)=  0.0823   gamma=   13.82 GHz
     lambda(    2)=  0.0303   gamma=    7.47 GHz
     lambda(    3)=  0.0480   gamma=   20.52 GHz
     lambda(    4)=  0.9545   gamma= 1519.02 GHz
     lambda(    5)=  0.0749   gamma=  159.12 GHz
     lambda(    6)=  0.3920   gamma=  852.55 GHz
     lambda(    7)=  0.1820   gamma=  519.15 GHz
     lambda(    8)=  0.1771   gamma=  613.53 GHz
     lambda(    9)=  0.2309   gamma=  813.98 GHz
     lambda(   10)=  0.0839   gamma=  304.82 GHz
     lambda(   11)=  0.0206   gamma=   75.38 GHz
     lambda(   12)=  0.0189   gamma=   71.78 GHz
     lambda(   13)=  0.0034   gamma=   13.23 GHz
     lambda(   14)=  0.0240   gamma=   98.73 GHz
     lambda(   15)=  0.0063   gamma=   28.84 GHz
     lambda(   16)=  0.0083   gamma=   39.62 GHz
     lambda(   17)=  0.0151   gamma=   77.10 GHz
     lambda(   18)=  0.0103   gamma=   54.55 GHz
     lambda(   19)=  0.0072   gamma=   40.43 GHz
     lambda(   20)=  0.0282   gamma=  170.49 GHz
     lambda(   21)=  0.0104   gamma=   80.35 GHz
 
 
     Number of q in the star =    6
     List of q in the star:
          1  -0.433012700  -0.433012700   0.000000000
          2   0.000000000   0.433012700  -0.433012700
          3  -0.000000000   0.433012700   0.433012700
          4   0.433012700   0.000000000  -0.433012700
          5   0.433012700  -0.000000000   0.433012700
          6   0.433012700  -0.433012700   0.000000000
 
     init_run     :      0.07s CPU      0.19s WALL (       1 calls)
     electrons    :      8.24s CPU      9.15s WALL (       1 calls)

     Called by init_run:
     wfcinit      :      0.00s CPU      0.04s WALL (       1 calls)
     potinit      :      0.01s CPU      0.07s WALL (       1 calls)
     hinit0       :      0.03s CPU      0.04s WALL (       1 calls)

     Called by electrons:
     c_bands      :      8.22s CPU      9.14s WALL (       1 calls)
     v_of_rho     :      0.01s CPU      0.04s WALL (       2 calls)
     newd         :      0.02s CPU      0.03s WALL (       2 calls)

     Called by c_bands:
     init_us_2    :      0.84s CPU      0.93s WALL (   29640 calls)
     cegterg      :      4.71s CPU      5.09s WALL (     313 calls)

     Called by *egterg:
     cdiaghg      :      1.56s CPU      1.71s WALL (    4720 calls)
     h_psi        :    400.55s CPU    491.27s WALL (  282491 calls)
     s_psi        :      5.76s CPU      6.52s WALL (  582101 calls)
     g_psi        :      0.01s CPU      0.02s WALL (    4408 calls)

     Called by h_psi:
     h_psi:calbec :      5.24s CPU      5.88s WALL (  282491 calls)
     vloc_psi     :    390.10s CPU    479.53s WALL (  282491 calls)
     add_vuspsi   :      2.79s CPU      3.15s WALL (  282491 calls)

     General routines
     calbec       :     26.12s CPU     27.93s WALL (  622817 calls)
     fft          :      0.47s CPU      0.87s WALL (    2983 calls)
     ffts         :      0.39s CPU      0.48s WALL (    4045 calls)
     fftw         :    557.87s CPU    691.71s WALL ( 4004745 calls)
     interpolate  :      0.27s CPU      0.34s WALL (     307 calls)
     davcio       :      3.44s CPU    122.02s WALL (  123488 calls)
 
     Parallel routines
 
     PHONON       :  16m22.74s CPU  21m53.76s WALL

     INITIALIZATION: 
     phq_setup    :      0.01s CPU      0.04s WALL (       1 calls)
     phq_init     :      7.19s CPU      8.10s WALL (       1 calls)
 
     phq_init     :      7.19s CPU      8.10s WALL (       1 calls)
     set_drhoc    :      0.05s CPU      0.05s WALL (       3 calls)
     init_vloc    :      0.00s CPU      0.01s WALL (       2 calls)
     init_us_1    :      0.05s CPU      0.10s WALL (       2 calls)
     newd         :      0.02s CPU      0.03s WALL (       2 calls)
     dvanqq       :      0.17s CPU      0.18s WALL (       1 calls)
     drho         :      4.24s CPU      4.91s WALL (       1 calls)
 
     DYNAMICAL MATRIX:
     dynmat0      :      1.22s CPU      1.34s WALL (       1 calls)
     phqscf       :    933.97s CPU   1258.39s WALL (       1 calls)
     dynmatrix    :      0.15s CPU      0.17s WALL (       1 calls)
 
     phqscf       :    933.97s CPU   1258.39s WALL (       1 calls)
     solve_linter :    919.62s CPU   1238.51s WALL (      21 calls)
     drhodv       :     14.33s CPU     16.06s WALL (      21 calls)
 
     dynmat0      :      1.22s CPU      1.34s WALL (       1 calls)
     dynmat_us    :      1.17s CPU      1.28s WALL (       1 calls)
     d2ionq       :      0.01s CPU      0.01s WALL (       1 calls)
     dynmatcc     :      0.04s CPU      0.04s WALL (       1 calls)
 
     dynmat_us    :      1.17s CPU      1.28s WALL (       1 calls)
     addusdynmat  :      0.00s CPU      0.00s WALL (       1 calls)
 
     phqscf       :    933.97s CPU   1258.39s WALL (       1 calls)
     solve_linter :    919.62s CPU   1238.51s WALL (      21 calls)
 
     solve_linter :    919.62s CPU   1238.51s WALL (      21 calls)
     dvqpsi_us    :      4.98s CPU      5.43s WALL (    3276 calls)
     ortho        :     16.46s CPU     17.18s WALL (   22152 calls)
     cgsolve      :    418.72s CPU    511.87s WALL (   22152 calls)
     incdrhoscf   :     71.65s CPU     90.01s WALL (   22152 calls)
     addusddens   :      2.51s CPU      3.99s WALL (     163 calls)
     vpsifft      :    107.01s CPU    134.48s WALL (   22152 calls)
     dv_of_drho   :      0.42s CPU      0.44s WALL (     142 calls)
     mix_pot      :     12.65s CPU     38.62s WALL (     142 calls)
     psymdvscf    :      8.24s CPU      8.44s WALL (     142 calls)
     newdq        :      2.04s CPU      2.05s WALL (     142 calls)
     adddvscf     :      0.75s CPU      0.85s WALL (   22152 calls)
     drhodvus     :      3.40s CPU      8.55s WALL (      21 calls)
 
     dvqpsi_us    :      4.98s CPU      5.43s WALL (    3276 calls)
     dvqpsi_us_on :      1.88s CPU      2.00s WALL (    3276 calls)
 
     cgsolve      :    418.72s CPU    511.87s WALL (   22152 calls)
     ch_psi       :    415.16s CPU    507.82s WALL (  277458 calls)
 
     ch_psi       :    415.16s CPU    507.82s WALL (  277458 calls)
     h_psi        :    400.55s CPU    491.27s WALL (  282491 calls)
     last         :     11.68s CPU     13.15s WALL (  277458 calls)
 
     h_psi        :    400.55s CPU    491.27s WALL (  282491 calls)
     add_vuspsi   :      2.79s CPU      3.15s WALL (  282491 calls)
 
     incdrhoscf   :     71.65s CPU     90.01s WALL (   22152 calls)
     addusdbec    :      0.74s CPU      0.82s WALL (   25428 calls)
 
     drhodvus     :      3.40s CPU      8.55s WALL (      21 calls)
 
      Electron-phonon coupling
     elphel       :     37.62s CPU     58.02s WALL (      21 calls)
     elphsum      :     32.34s CPU     33.01s WALL (       1 calls)
 
      General routines
     calbec       :     26.12s CPU     27.93s WALL (  622817 calls)
     fft          :      0.47s CPU      0.87s WALL (    2983 calls)
     ffts         :      0.39s CPU      0.48s WALL (    4045 calls)
     fftw         :    557.87s CPU    691.71s WALL ( 4004745 calls)
     davcio       :      3.44s CPU    122.02s WALL (  123488 calls)
     write_rec    :      0.13s CPU     26.44s WALL (     163 calls)
 
 
     PHONON       :  16m22.74s CPU  21m53.76s WALL

 
   This run was terminated on:   0:33:15  22Jul2022            

=------------------------------------------------------------------------------=
   JOB DONE.
=------------------------------------------------------------------------------=
